LAMMPS (18 Jun 2019)
Reading data file ...
  orthogonal box = (0 0 0) to (80 40 40)
  1 by 1 by 1 MPI processor grid
  reading atoms ...
  42592 atoms
  reading velocities ...
  42592 velocities
  read_data CPU = 0.134495 secs
Neighbor list info ...
  update every 1 steps, delay 10 steps, check yes
  max neighbors/atom: 2000, page size: 100000
  master list distance cutoff = 3.3
  ghost atom cutoff = 3.3
  binsize = 1.65, bins = 49 25 25
  1 neighbor lists, perpetual/occasional/extra = 1 0 0
  (1) pair lj/cut, perpetual
      attributes: half, newton on
      pair build: half/bin/atomonly/newton
      stencil: half/bin/3d/newton
      bin: standard
Setting up Verlet run ...
  Unit style    : lj
  Current step  : 0
  Time step     : 0.001
Per MPI rank memory allocation (min/avg/max) = 18.59 | 18.59 | 18.59 Mbytes
Step Temp E_pair E_mol TotEng Press 
       0   0.33371443   -4.6484691            0   -4.1479092   -2.3423654 
  200000   0.70380544   -6.5195095            0   -5.4638262  -0.02275285 
Loop time of 6852.38 on 1 procs for 200000 steps with 42592 atoms

Performance: 2521.750 tau/day, 29.187 timesteps/s
99.8% CPU use with 1 MPI tasks x no OpenMP threads

MPI task timing breakdown:
Section |  min time  |  avg time  |  max time  |%varavg| %total
---------------------------------------------------------------
Pair    | 6287       | 6287       | 6287       |   0.0 | 91.75
Neigh   | 391.98     | 391.98     | 391.98     |   0.0 |  5.72
Comm    | 17.955     | 17.955     | 17.955     |   0.0 |  0.26
Output  | 0.00012684 | 0.00012684 | 0.00012684 |   0.0 |  0.00
Modify  | 122.57     | 122.57     | 122.57     |   0.0 |  1.79
Other   |            | 32.91      |            |       |  0.48

Nlocal:    42592 ave 42592 max 42592 min
Histogram: 1 0 0 0 0 0 0 0 0 0
Nghost:    15516 ave 15516 max 15516 min
Histogram: 1 0 0 0 0 0 0 0 0 0
Neighs:    2.9075e+06 ave 2.9075e+06 max 2.9075e+06 min
Histogram: 1 0 0 0 0 0 0 0 0 0

Total # of neighbors = 2907503
Ave neighs/atom = 68.2641
Neighbor list builds = 5445
Dangerous builds = 0
Setting up Verlet run ...
  Unit style    : lj
  Current step  : 200000
  Time step     : 0.001
Per MPI rank memory allocation (min/avg/max) = 23.18 | 23.18 | 23.18 Mbytes
Time Temp Press 
         200   0.70380544  -0.02275285 
         201   0.70319805 -0.024308618 
         202   0.69908893 -0.033951754 
         203   0.70216502 -0.010753145 
         204   0.69540884 -0.017036446 
         205   0.69925815 -0.0083191932 
Loop time of 176.727 on 1 procs for 5000 steps with 42592 atoms

Performance: 2444.449 tau/day, 28.292 timesteps/s
99.8% CPU use with 1 MPI tasks x no OpenMP threads

MPI task timing breakdown:
Section |  min time  |  avg time  |  max time  |%varavg| %total
---------------------------------------------------------------
Pair    | 162.57     | 162.57     | 162.57     |   0.0 | 91.99
Neigh   | 9.9511     | 9.9511     | 9.9511     |   0.0 |  5.63
Comm    | 0.43038    | 0.43038    | 0.43038    |   0.0 |  0.24
Output  | 0.00062013 | 0.00062013 | 0.00062013 |   0.0 |  0.00
Modify  | 3.0742     | 3.0742     | 3.0742     |   0.0 |  1.74
Other   |            | 0.7015     |            |       |  0.40

Nlocal:    42592 ave 42592 max 42592 min
Histogram: 1 0 0 0 0 0 0 0 0 0
Nghost:    15471 ave 15471 max 15471 min
Histogram: 1 0 0 0 0 0 0 0 0 0
Neighs:    2.90571e+06 ave 2.90571e+06 max 2.90571e+06 min
Histogram: 1 0 0 0 0 0 0 0 0 0

Total # of neighbors = 2905706
Ave neighs/atom = 68.2219
Neighbor list builds = 134
Dangerous builds = 0
Total wall time: 1:57:09
