LAMMPS (18 Jun 2019)
Reading data file ...
  orthogonal box = (0 0 0) to (80 40 40)
  1 by 1 by 1 MPI processor grid
  reading atoms ...
  42592 atoms
  reading velocities ...
  42592 velocities
  read_data CPU = 0.133509 secs
Neighbor list info ...
  update every 1 steps, delay 10 steps, check yes
  max neighbors/atom: 2000, page size: 100000
  master list distance cutoff = 3.3
  ghost atom cutoff = 3.3
  binsize = 1.65, bins = 49 25 25
  1 neighbor lists, perpetual/occasional/extra = 1 0 0
  (1) pair lj/cut, perpetual
      attributes: half, newton on
      pair build: half/bin/atomonly/newton
      stencil: half/bin/3d/newton
      bin: standard
Setting up Verlet run ...
  Unit style    : lj
  Current step  : 0
  Time step     : 0.001
Per MPI rank memory allocation (min/avg/max) = 18.59 | 18.59 | 18.59 Mbytes
Step Temp E_pair E_mol TotEng Press 
       0   0.33196303   -5.4238894            0   -4.9259565    -2.666044 
  200000   0.70175396   -6.6327158            0   -5.5801095 -0.018076994 
Loop time of 6372.14 on 1 procs for 200000 steps with 42592 atoms

Performance: 2711.806 tau/day, 31.387 timesteps/s
99.8% CPU use with 1 MPI tasks x no OpenMP threads

MPI task timing breakdown:
Section |  min time  |  avg time  |  max time  |%varavg| %total
---------------------------------------------------------------
Pair    | 5825.9     | 5825.9     | 5825.9     |   0.0 | 91.43
Neigh   | 372.61     | 372.61     | 372.61     |   0.0 |  5.85
Comm    | 17.889     | 17.889     | 17.889     |   0.0 |  0.28
Output  | 0.00013089 | 0.00013089 | 0.00013089 |   0.0 |  0.00
Modify  | 123.31     | 123.31     | 123.31     |   0.0 |  1.94
Other   |            | 32.45      |            |       |  0.51

Nlocal:    42592 ave 42592 max 42592 min
Histogram: 1 0 0 0 0 0 0 0 0 0
Nghost:    15166 ave 15166 max 15166 min
Histogram: 1 0 0 0 0 0 0 0 0 0
Neighs:    2.67095e+06 ave 2.67095e+06 max 2.67095e+06 min
Histogram: 1 0 0 0 0 0 0 0 0 0

Total # of neighbors = 2670953
Ave neighs/atom = 62.7102
Neighbor list builds = 5447
Dangerous builds = 0
Setting up Verlet run ...
  Unit style    : lj
  Current step  : 200000
  Time step     : 0.001
Per MPI rank memory allocation (min/avg/max) = 22.42 | 22.42 | 22.42 Mbytes
Time Temp Press 
         200   0.70175396 -0.018076994 
         201   0.69721906 -0.0045054531 
         202    0.7022674 -0.0085974496 
         203   0.69537211 -0.0098382549 
         204   0.69913447 -0.020710242 
         205   0.69959037 -0.013516299 
Loop time of 159.684 on 1 procs for 5000 steps with 42592 atoms

Performance: 2705.345 tau/day, 31.312 timesteps/s
99.8% CPU use with 1 MPI tasks x no OpenMP threads

MPI task timing breakdown:
Section |  min time  |  avg time  |  max time  |%varavg| %total
---------------------------------------------------------------
Pair    | 146.03     | 146.03     | 146.03     |   0.0 | 91.45
Neigh   | 9.3205     | 9.3205     | 9.3205     |   0.0 |  5.84
Comm    | 0.44032    | 0.44032    | 0.44032    |   0.0 |  0.28
Output  | 0.00062895 | 0.00062895 | 0.00062895 |   0.0 |  0.00
Modify  | 3.082      | 3.082      | 3.082      |   0.0 |  1.93
Other   |            | 0.8109     |            |       |  0.51

Nlocal:    42592 ave 42592 max 42592 min
Histogram: 1 0 0 0 0 0 0 0 0 0
Nghost:    15244 ave 15244 max 15244 min
Histogram: 1 0 0 0 0 0 0 0 0 0
Neighs:    2.66708e+06 ave 2.66708e+06 max 2.66708e+06 min
Histogram: 1 0 0 0 0 0 0 0 0 0

Total # of neighbors = 2667080
Ave neighs/atom = 62.6193
Neighbor list builds = 136
Dangerous builds = 0
Total wall time: 1:48:52
