LAMMPS (18 Jun 2019)
Reading data file ...
  orthogonal box = (0 0 0) to (80 40 40)
  1 by 1 by 1 MPI processor grid
  reading atoms ...
  42592 atoms
  reading velocities ...
  42592 velocities
  read_data CPU = 0.135611 secs
Neighbor list info ...
  update every 1 steps, delay 10 steps, check yes
  max neighbors/atom: 2000, page size: 100000
  master list distance cutoff = 3.3
  ghost atom cutoff = 3.3
  binsize = 1.65, bins = 49 25 25
  1 neighbor lists, perpetual/occasional/extra = 1 0 0
  (1) pair lj/cut, perpetual
      attributes: half, newton on
      pair build: half/bin/atomonly/newton
      stencil: half/bin/3d/newton
      bin: standard
Setting up Verlet run ...
  Unit style    : lj
  Current step  : 0
  Time step     : 0.001
Per MPI rank memory allocation (min/avg/max) = 18.59 | 18.59 | 18.59 Mbytes
Step Temp E_pair E_mol TotEng Press 
       0   0.33323653   -5.1969311            0   -4.6970881   -2.5718011 
  200000   0.69607497   -6.5879942            0   -5.5439063 -0.016075648 
Loop time of 6492.14 on 1 procs for 200000 steps with 42592 atoms

Performance: 2661.680 tau/day, 30.806 timesteps/s
99.8% CPU use with 1 MPI tasks x no OpenMP threads

MPI task timing breakdown:
Section |  min time  |  avg time  |  max time  |%varavg| %total
---------------------------------------------------------------
Pair    | 5938.5     | 5938.5     | 5938.5     |   0.0 | 91.47
Neigh   | 377.45     | 377.45     | 377.45     |   0.0 |  5.81
Comm    | 18.57      | 18.57      | 18.57      |   0.0 |  0.29
Output  | 0.00012898 | 0.00012898 | 0.00012898 |   0.0 |  0.00
Modify  | 124.06     | 124.06     | 124.06     |   0.0 |  1.91
Other   |            | 33.53      |            |       |  0.52

Nlocal:    42592 ave 42592 max 42592 min
Histogram: 1 0 0 0 0 0 0 0 0 0
Nghost:    15490 ave 15490 max 15490 min
Histogram: 1 0 0 0 0 0 0 0 0 0
Neighs:    2.72932e+06 ave 2.72932e+06 max 2.72932e+06 min
Histogram: 1 0 0 0 0 0 0 0 0 0

Total # of neighbors = 2729318
Ave neighs/atom = 64.0805
Neighbor list builds = 5453
Dangerous builds = 0
Setting up Verlet run ...
  Unit style    : lj
  Current step  : 200000
  Time step     : 0.001
Per MPI rank memory allocation (min/avg/max) = 22.8 | 22.8 | 22.8 Mbytes
Time Temp Press 
         200   0.69607497 -0.016075648 
         201   0.70584369  -0.01832839 
         202   0.70292595 -0.021275125 
         203   0.70496209 -0.024442737 
         204   0.69585314 -0.034161672 
         205   0.70066896 -0.0094785505 
Loop time of 162.839 on 1 procs for 5000 steps with 42592 atoms

Performance: 2652.932 tau/day, 30.705 timesteps/s
99.8% CPU use with 1 MPI tasks x no OpenMP threads

MPI task timing breakdown:
Section |  min time  |  avg time  |  max time  |%varavg| %total
---------------------------------------------------------------
Pair    | 148.99     | 148.99     | 148.99     |   0.0 | 91.49
Neigh   | 9.4425     | 9.4425     | 9.4425     |   0.0 |  5.80
Comm    | 0.46316    | 0.46316    | 0.46316    |   0.0 |  0.28
Output  | 0.00061202 | 0.00061202 | 0.00061202 |   0.0 |  0.00
Modify  | 3.1141     | 3.1141     | 3.1141     |   0.0 |  1.91
Other   |            | 0.8324     |            |       |  0.51

Nlocal:    42592 ave 42592 max 42592 min
Histogram: 1 0 0 0 0 0 0 0 0 0
Nghost:    15473 ave 15473 max 15473 min
Histogram: 1 0 0 0 0 0 0 0 0 0
Neighs:    2.72494e+06 ave 2.72494e+06 max 2.72494e+06 min
Histogram: 1 0 0 0 0 0 0 0 0 0

Total # of neighbors = 2724943
Ave neighs/atom = 63.9778
Neighbor list builds = 136
Dangerous builds = 0
Total wall time: 1:50:55
