LAMMPS (18 Jun 2019)
Reading data file ...
  orthogonal box = (0 0 0) to (80 40 40)
  1 by 1 by 1 MPI processor grid
  reading atoms ...
  42592 atoms
  reading velocities ...
  42592 velocities
  read_data CPU = 0.12854 secs
Neighbor list info ...
  update every 1 steps, delay 10 steps, check yes
  max neighbors/atom: 2000, page size: 100000
  master list distance cutoff = 3.3
  ghost atom cutoff = 3.3
  binsize = 1.65, bins = 49 25 25
  1 neighbor lists, perpetual/occasional/extra = 1 0 0
  (1) pair lj/cut, perpetual
      attributes: half, newton on
      pair build: half/bin/atomonly/newton
      stencil: half/bin/3d/newton
      bin: standard
Setting up Verlet run ...
  Unit style    : lj
  Current step  : 0
  Time step     : 0.001
Per MPI rank memory allocation (min/avg/max) = 18.59 | 18.59 | 18.59 Mbytes
Step Temp E_pair E_mol TotEng Press 
       0   0.33417986   -4.9920806            0   -4.4908226    -2.486392 
  200000   0.69806603   -6.5548567            0   -5.5077822 -0.0028386657 
Loop time of 6796.41 on 1 procs for 200000 steps with 42592 atoms

Performance: 2542.520 tau/day, 29.427 timesteps/s
99.8% CPU use with 1 MPI tasks x no OpenMP threads

MPI task timing breakdown:
Section |  min time  |  avg time  |  max time  |%varavg| %total
---------------------------------------------------------------
Pair    | 6232.3     | 6232.3     | 6232.3     |   0.0 | 91.70
Neigh   | 395.56     | 395.56     | 395.56     |   0.0 |  5.82
Comm    | 17.428     | 17.428     | 17.428     |   0.0 |  0.26
Output  | 0.00012612 | 0.00012612 | 0.00012612 |   0.0 |  0.00
Modify  | 123.2      | 123.2      | 123.2      |   0.0 |  1.81
Other   |            | 27.88      |            |       |  0.41

Nlocal:    42592 ave 42592 max 42592 min
Histogram: 1 0 0 0 0 0 0 0 0 0
Nghost:    15467 ave 15467 max 15467 min
Histogram: 1 0 0 0 0 0 0 0 0 0
Neighs:    2.7913e+06 ave 2.7913e+06 max 2.7913e+06 min
Histogram: 1 0 0 0 0 0 0 0 0 0

Total # of neighbors = 2791297
Ave neighs/atom = 65.5357
Neighbor list builds = 5451
Dangerous builds = 0
Setting up Verlet run ...
  Unit style    : lj
  Current step  : 200000
  Time step     : 0.001
Per MPI rank memory allocation (min/avg/max) = 22.8 | 22.8 | 22.8 Mbytes
Time Temp Press 
         200   0.69806603 -0.0028386657 
         201    0.6975506 -0.0072411573 
         202   0.69869133 -0.016551326 
         203   0.70271325 -0.017449401 
         204   0.70015385 -0.00079477237 
         205   0.69872511 -0.022673652 
Loop time of 171.257 on 1 procs for 5000 steps with 42592 atoms

Performance: 2522.526 tau/day, 29.196 timesteps/s
99.8% CPU use with 1 MPI tasks x no OpenMP threads

MPI task timing breakdown:
Section |  min time  |  avg time  |  max time  |%varavg| %total
---------------------------------------------------------------
Pair    | 157.04     | 157.04     | 157.04     |   0.0 | 91.70
Neigh   | 10.004     | 10.004     | 10.004     |   0.0 |  5.84
Comm    | 0.43252    | 0.43252    | 0.43252    |   0.0 |  0.25
Output  | 0.00060296 | 0.00060296 | 0.00060296 |   0.0 |  0.00
Modify  | 3.0838     | 3.0838     | 3.0838     |   0.0 |  1.80
Other   |            | 0.6957     |            |       |  0.41

Nlocal:    42592 ave 42592 max 42592 min
Histogram: 1 0 0 0 0 0 0 0 0 0
Nghost:    15306 ave 15306 max 15306 min
Histogram: 1 0 0 0 0 0 0 0 0 0
Neighs:    2.79158e+06 ave 2.79158e+06 max 2.79158e+06 min
Histogram: 1 0 0 0 0 0 0 0 0 0

Total # of neighbors = 2791582
Ave neighs/atom = 65.5424
Neighbor list builds = 137
Dangerous builds = 0
Total wall time: 1:56:08
