LAMMPS (18 Jun 2019)
Reading data file ...
  orthogonal box = (0 0 0) to (80 40 40)
  4 by 1 by 2 MPI processor grid
  reading atoms ...
  2916 atoms
  reading velocities ...
  2916 velocities
  read_data CPU = 0.0244747 secs
Neighbor list info ...
  update every 1 steps, delay 10 steps, check yes
  max neighbors/atom: 2000, page size: 100000
  master list distance cutoff = 3.3
  ghost atom cutoff = 3.3
  binsize = 1.65, bins = 49 25 25
  1 neighbor lists, perpetual/occasional/extra = 1 0 0
  (1) pair lj/cut, perpetual
      attributes: half, newton on
      pair build: half/bin/atomonly/newton
      stencil: half/bin/3d/newton
      bin: standard
Setting up Verlet run ...
  Unit style    : lj
  Current step  : 0
  Time step     : 0.001
Per MPI rank memory allocation (min/avg/max) = 0.5292 | 1.824 | 3.119 Mbytes
Step Temp E_pair E_mol TotEng Press 
       0   0.33358293            0            0    0.5002028   0.00759683 
  200000    1.0193527  -0.21665287            0    1.3118519  0.020158416 
Loop time of 8.26375 on 8 procs for 200000 steps with 2916 atoms

Performance: 2091061.340 tau/day, 24202.099 timesteps/s
99.4% CPU use with 8 MPI tasks x no OpenMP threads

MPI task timing breakdown:
Section |  min time  |  avg time  |  max time  |%varavg| %total
---------------------------------------------------------------
Pair    | 1.2933     | 1.4954     | 1.7103     |  14.6 | 18.10
Neigh   | 0.38023    | 0.42439    | 0.46869    |   5.9 |  5.14
Comm    | 4.188      | 4.4141     | 4.6044     |   8.1 | 53.42
Output  | 1.9192e-05 | 2.1301e-05 | 3.2116e-05 |   0.0 |  0.00
Modify  | 1.3532     | 1.3964     | 1.4408     |   2.7 | 16.90
Other   |            | 0.5334     |            |       |  6.45

Nlocal:    364.5 ave 419 max 344 min
Histogram: 2 2 1 1 1 0 0 0 0 1
Nghost:    409.5 ave 441 max 380 min
Histogram: 2 0 1 0 2 0 1 0 0 2
Neighs:    687.375 ave 890 max 582 min
Histogram: 2 1 1 1 2 0 0 0 0 1

Total # of neighbors = 5499
Ave neighs/atom = 1.8858
Neighbor list builds = 5784
Dangerous builds = 0
Setting up Verlet run ...
  Unit style    : lj
  Current step  : 200000
  Time step     : 0.001
Per MPI rank memory allocation (min/avg/max) = 4.115 | 4.124 | 4.135 Mbytes
Time Temp Press 
         200    1.0193527  0.020158416 
       200.1   0.99525795  0.019906702 
       200.2   0.98858686  0.020550248 
       200.3     1.025065  0.020783392 
       200.4    0.9855225  0.019559836 
       200.5   0.99633624  0.019900549 
       200.6     1.032141  0.021291417 
       200.7   0.99688501  0.019643259 
       200.8   0.99409779  0.019700828 
       200.9   0.99835976  0.020472981 
         201    1.0099353  0.019617237 
       201.1   0.96968447  0.019863407 
       201.2    1.0072886  0.020951243 
       201.3    1.0050922  0.019982898 
       201.4    1.0018975  0.020076996 
       201.5   0.99011933  0.020001833 
       201.6   0.97976967  0.019489417 
       201.7    0.9944519  0.019690867 
       201.8    1.0200843  0.020450635 
       201.9    1.0033535  0.020321846 
         202   0.97500357  0.019324764 
       202.1    1.0061144  0.019889852 
       202.2    1.0134551    0.0204868 
       202.3     1.020022  0.020772216 
       202.4   0.98392433  0.019793092 
       202.5   0.98923078  0.019589143 
       202.6    1.0187734  0.020850327 
       202.7   0.99382405  0.019717755 
       202.8   0.99068188  0.019458775 
       202.9   0.99874826  0.019451241 
         203    1.0203172  0.020669728 
       203.1    1.0099737  0.021167142 
       203.2   0.97714449  0.019685468 
       203.3    0.9923783  0.020143894 
       203.4    1.0195149  0.020980043 
       203.5    1.0124215  0.020657176 
       203.6    1.0195867  0.019954636 
       203.7   0.98390312  0.019921416 
       203.8    1.0044826  0.020258393 
       203.9    1.0349786  0.020791334 
         204   0.99399438  0.019435027 
       204.1   0.99640578  0.020401879 
       204.2    1.0031884  0.021712108 
       204.3     1.008491  0.021199091 
       204.4    1.0117931   0.02067454 
       204.5   0.99829726  0.019818512 
       204.6    0.9760758  0.020558339 
       204.7    0.9849816  0.020697766 
       204.8    1.0116643  0.020228484 
       204.9   0.98526918  0.020547405 
         205   0.98786325  0.020446438 
Loop time of 0.216423 on 8 procs for 5000 steps with 2916 atoms

Performance: 1996091.852 tau/day, 23102.915 timesteps/s
99.3% CPU use with 8 MPI tasks x no OpenMP threads

MPI task timing breakdown:
Section |  min time  |  avg time  |  max time  |%varavg| %total
---------------------------------------------------------------
Pair    | 0.031724   | 0.036413   | 0.042272   |   2.0 | 16.82
Neigh   | 0.0091416  | 0.010425   | 0.011984   |   0.9 |  4.82
Comm    | 0.097292   | 0.10465    | 0.11182    |   1.6 | 48.35
Output  | 0.01828    | 0.01833    | 0.018638   |   0.1 |  8.47
Modify  | 0.031307   | 0.033433   | 0.036327   |   0.8 | 15.45
Other   |            | 0.01317    |            |       |  6.09

Nlocal:    364.5 ave 393 max 334 min
Histogram: 1 1 1 1 0 0 1 1 1 1
Nghost:    397.125 ave 442 max 370 min
Histogram: 2 0 2 1 1 0 1 0 0 1
Neighs:    663 ave 740 max 549 min
Histogram: 1 0 1 1 1 0 0 0 1 3

Total # of neighbors = 5304
Ave neighs/atom = 1.81893
Neighbor list builds = 145
Dangerous builds = 0
Total wall time: 0:00:08
