LAMMPS (18 Jun 2019)
Reading data file ...
  orthogonal box = (0 0 0) to (80 40 40)
  4 by 1 by 2 MPI processor grid
  reading atoms ...
  5832 atoms
  reading velocities ...
  5832 velocities
  read_data CPU = 0.0239011 secs
Neighbor list info ...
  update every 1 steps, delay 10 steps, check yes
  max neighbors/atom: 2000, page size: 100000
  master list distance cutoff = 3.3
  ghost atom cutoff = 3.3
  binsize = 1.65, bins = 49 25 25
  1 neighbor lists, perpetual/occasional/extra = 1 0 0
  (1) pair lj/cut, perpetual
      attributes: half, newton on
      pair build: half/bin/atomonly/newton
      stencil: half/bin/3d/newton
      bin: standard
Setting up Verlet run ...
  Unit style    : lj
  Current step  : 0
  Time step     : 0.001
Per MPI rank memory allocation (min/avg/max) = 2.766 | 2.766 | 2.766 Mbytes
Step Temp E_pair E_mol TotEng Press 
       0    0.3328674            0            0   0.49921548   0.01516367 
  200000    1.0154721  -0.41364947            0    1.1092975  0.036780343 
 time of 18.2032 on 8 procs for 200000 steps with 5832 atoms

Performance: 949285.140 tau/day, 10987.097 timesteps/s
91.6% CPU use with 8 MPI tasks x no OpenMP threads

MPI task timing breakdown:
Section |  min time  |  avg time  |  max time  |%varavg| %total
---------------------------------------------------------------
Pair    | 5.4493     | 6.0106     | 6.387      |  11.6 | 33.02
Neigh   | 1.2007     | 1.2765     | 1.3395     |   3.6 |  7.01
Comm    | 7.3354     | 7.8102     | 8.5489     |  13.0 | 42.91
Output  | 1.9103e-05 | 2.151e-05  | 3.2444e-05 |   0.0 |  0.00
Modify  | 2.132      | 2.2406     | 2.4323     |   6.6 | 12.31
Other   |            | 0.8651     |            |       |  4.75

Nlocal:    729 ave 775 max 654 min
Histogram: 1 0 0 1 0 1 1 2 1 1
Nghost:    788 ave 838 max 747 min
Histogram: 3 0 1 0 1 0 0 0 1 2
Neighs:    2699.38 ave 2994 max 2159 min
Histogram: 1 0 0 0 1 1 2 0 1 2

Total # of neighbors = 21595
Ave neighs/atom = 3.70285
Neighbor list builds = 5939
Dangerous builds = 0
Setting up Verlet run ...
  Unit style    : lj
  Current step  : 200000
  Time step     : 0.001
Per MPI rank memory allocation (min/avg/max) = 3.797 | 3.945 | 4.154 Mbytes
Time Temp Press 
         200    1.0154721  0.036780343 
       200.1    1.0003352  0.037974859 
       200.2    0.9849904   0.03653187 
       200.3   0.98862267  0.035522409 
       200.4    1.0047096  0.037118743 
       200.5    1.0102341  0.036874872 
       200.6   0.99934402  0.035085898 
       200.7   0.99202499  0.035523004 
       200.8    0.9959186  0.036900946 
       200.9    1.0039535  0.037886998 
         201    1.0015889  0.035161641 
       201.1   0.99139347  0.035509752 
       201.2    1.0188617  0.037081806 
       201.3   0.99905376  0.036200828 
       201.4   0.99077152  0.035910766 
       201.5    1.0100458  0.035971932 
       201.6   0.99659301  0.036686324 
       201.7   0.98294716   0.03506305 
       201.8   0.99720225  0.035978308 
       201.9    1.0165286  0.037082456 
         202    1.0043862  0.036262115 
       202.1   0.98782161  0.036316645 
       202.2   0.99458644  0.035367708 
       202.3    1.0061934  0.036871026 
       202.4    1.0046971  0.035690505 
       202.5   0.98462352  0.035223327 
       202.6   0.99552659  0.035547097 
       202.7    1.0145919  0.035258918 
       202.8    1.0099127  0.035401718 
       202.9     1.009991  0.037475123 
         203   0.99404505  0.036740331 
       203.1    0.9753738  0.036076347 
       203.2    1.0066268   0.03567597 
       203.3    1.0047968  0.034050412 
       203.4    1.0006797   0.03649332 
       203.5   0.98518166  0.036004715 
       203.6    1.0017919  0.035250125 
       203.7    1.0299056  0.037067472 
       203.8   0.99653291  0.036184937 
       203.9   0.99752076  0.034302751 
         204    1.0051146  0.035983382 
       204.1    1.0171365  0.037102637 
       204.2   0.98993204  0.035817141 
       204.3   0.98431889  0.035089044 
       204.4    1.0148257  0.035226415 
       204.5    1.0053746   0.03593351 
       204.6   0.99095338  0.035605011 
       204.7    0.9951035  0.036481608 
       204.8    1.0019113  0.035244157 
       204.9    1.0047777  0.035753533 
         205     0.999726   0.03612913 
Loop time of 0.489266 on 8 procs for 5000 steps with 5832 atoms

Performance: 882955.556 tau/day, 10219.393 timesteps/s
90.6% CPU use with 8 MPI tasks x no OpenMP threads

MPI task timing breakdown:
Section |  min time  |  avg time  |  max time  |%varavg| %total
---------------------------------------------------------------
Pair    | 0.11775    | 0.15181    | 0.16644    |   3.8 | 31.03
Neigh   | 0.028767   | 0.034779   | 0.038273   |   1.5 |  7.11
Comm    | 0.17497    | 0.19308    | 0.23268    |   4.1 | 39.46
Output  | 0.03254    | 0.032603   | 0.032963   |   0.1 |  6.66
Modify  | 0.051535   | 0.054623   | 0.057834   |   0.8 | 11.16
Other   |            | 0.02238    |            |       |  4.57

Nlocal:    729 ave 768 max 643 min
Histogram: 1 0 0 0 1 0 1 1 2 2
Nghost:    786.625 ave 848 max 731 min
Histogram: 1 0 1 1 2 1 1 0 0 1
Neighs:    2746.25 ave 3157 max 2137 min
Histogram: 1 0 0 1 0 1 3 0 1 1

Total # of neighbors = 21970
Ave neighs/atom = 3.76715
Neighbor list builds = 163
Dangerous builds = 0
Total wall time: 0:00:18
