LAMMPS (18 Jun 2019)
Reading data file ...
  orthogonal box = (0 0 0) to (80 40 40)
  4 by 1 by 2 MPI processor grid
  reading atoms ...
  42592 atoms
  reading velocities ...
  42592 velocities
  read_data CPU = 0.139555 secs
Neighbor list info ...
  update every 1 steps, delay 10 steps, check yes
  max neighbors/atom: 2000, page size: 100000
  master list distance cutoff = 3.3
  ghost atom cutoff = 3.3
  binsize = 1.65, bins = 49 25 25
  1 neighbor lists, perpetual/occasional/extra = 1 0 0
  (1) pair lj/cut, perpetual
      attributes: half, newton on
      pair build: half/bin/atomonly/newton
      stencil: half/bin/3d/newton
      bin: standard
Setting up Verlet run ...
  Unit style    : lj
  Current step  : 0
  Time step     : 0.001
Per MPI rank memory allocation (min/avg/max) = 1.512 | 4.423 | 7.324 Mbytes
Time Temp Press 
           0   0.33304438   -2.3932238 
           1    1.0018232  0.085017046 
           2    1.0044615   0.10117432 
           3    0.9954543  0.071959505 
           4    1.0078139    0.0917066 
           5    1.0034105  0.093254222 
           6    1.0003469  0.065734611 
           7   0.99818647  0.069895676 
           8    1.0046081  0.071372976 
           9   0.99946323  0.041641056 
          10    1.0052239  0.027004467 
          11   0.99495735  0.028616048 
          12   0.99229005 -0.0010377501 
          13   0.99867693 -0.0040465959 
          14   0.99196702 0.0060353484 
          15   0.99691097 -0.011631972 
          16   0.99994086 -0.0052805094 
          17    1.0021421 -0.021452884 
          18    1.0048881 -0.012572326 
          19   0.99066063 -0.038100421 
          20    1.0044134 -0.030869069 
          21    0.9973971  -0.01780717 
          22    1.0014421 -0.021286029 
          23    1.0011867 -0.025084143 
          24    1.0052057 -0.013774471 
          25    1.0011296 -0.027927909 
          26    1.0001766 -0.022582035 
          27    1.0012742 -0.024948367 
          28     1.001046 -0.022929816 
          29   0.99401272 -0.0090110307 
          30   0.99869685 -0.015125568 
          31   0.99539629 -0.014466819 
          32     1.000002 -0.0097534118 
          33    1.0066229  0.005271665 
          34   0.99794457 -0.012077675 
          35    1.0076986  -0.01207909 
          36    1.0052987 0.0025998879 
          37    0.9987892 -0.0036240548 
          38    1.0044506 0.0062493705 
          39    1.0011136 -0.0052772051 
          40    1.0007145  0.016870411 
          41    1.0064018 0.0058237256 
          42   0.99270072  0.004031943 
          43     1.002414  0.014611348 
          44    1.0054177  0.013741157 
          45   0.99775688  0.026674626 
          46    1.0042342  0.047012281 
          47   0.99642352  0.038621116 
          48    1.0014291  0.034748449 
          49   0.99794546  0.036665929 
          50   0.99976638  0.033969024 
          51   0.99748004  0.035667303 
          52   0.99782304  0.064395951 
          53   0.99920337  0.040682239 
          54    1.0058245   0.05951573 
          55    1.0033462  0.050288487 
          56   0.99793216  0.053317052 
          57   0.99812322   0.04293247 
          58    1.0057253  0.047625391 
          59     1.001843  0.036925361 
          60   0.99901371  0.035336883 
          61   0.99674034  0.029268933 
          62    1.0053246  0.038340664 
          63   0.99573724  0.031772132 
          64    1.0024777  0.032896942 
          65   0.99816616  0.013788658 
          66   0.99406224  0.014388464 
          67    1.0001049  0.016998794 
          68    1.0014245  0.029858037 
          69   0.99900497 0.0055598296 
          70    1.0041439  0.011656879 
          71   0.99654855  0.017872812 
          72   0.99432418  0.012135674 
          73   0.99966993  0.006718774 
          74    1.0037166 0.0064207599 
          75    1.0008468  0.014912684 
          76    1.0061235  0.016057743 
          77    0.9959582 0.0032958524 
          78   0.99936432  0.019036081 
          79   0.99774055  0.010478906 
          80   0.99911192 0.0042776487 
          81    1.0034619 -0.0066378116 
          82    1.0090819 0.0039070333 
          83    1.0074235  0.014322253 
          84    1.0032321  0.013169552 
          85    1.0049468  0.032782031 
          86   0.99889704  0.034169578 
          87   0.99798988  0.027229242 
          88   0.99952868  0.014104141 
          89    1.0004483  0.031856137 
          90    1.0082252  0.026674738 
          91   0.99385414  0.030937461 
          92     1.008032  0.038268558 
          93    1.0083046  0.036048652 
          94    1.0015721  0.031133074 
          95   0.99628728      0.02894 
          96     1.002056  0.056896213 
          97    0.9978771  0.046328438 
          98    1.0065919  0.053440862 
          99    0.9999985    0.0363106 
         100    0.9995494  0.034432169 
         101    1.0011352  0.035035381 
         102     1.001092  0.040637217 
         103   0.99463581  0.035343104 
         104   0.99712101  0.037872307 
         105   0.99605428  0.037213872 
         106   0.99984302  0.023425853 
         107    0.9967129  0.032866495 
         108    1.0023085  0.024844825 
         109   0.99931303 0.0070431239 
         110    1.0028471  0.016591207 
         111   0.99482692  0.018872268 
         112   0.99475181  0.022088784 
         113    1.0016344 0.0038457053 
         114    1.0029904  0.039588014 
         115   0.99850598 0.0093511427 
         116    1.0046294  0.014918749 
         117    1.0013965  0.012545175 
         118   0.99192468   0.01195311 
         119   0.99339581  0.029851163 
         120   0.99268698  0.010159606 
         121   0.99997619  0.020603066 
         122    1.0033642  0.016927526 
         123   0.99478867  0.019372693 
         124    1.0003666  0.036796759 
         125    1.0087375  0.042100921 
         126    1.0014099  0.026208716 
         127    1.0013447  0.038846003 
         128    1.0013373   0.03497122 
         129   0.99863292  0.025564901 
         130    1.0022629  0.019440346 
         131    1.0068276  0.034899337 
         132    0.9930293  0.022382001 
         133   0.99974907  0.028281621 
         134   0.99866238  0.035327837 
         135   0.99766758  0.045151156 
         136   0.99763442  0.032357654 
         137   0.99593905  0.045422762 
         138    1.0071345  0.047720347 
         139   0.99827442  0.034918251 
         140   0.99653228  0.042236332 
         141   0.99716252  0.032845431 
         142   0.99957664  0.040517751 
         143    1.0029596  0.032722592 
         144   0.99987777   0.02942982 
         145    1.0037354  0.040306192 
         146   0.99256678  0.042756875 
         147   0.99562638   0.03748561 
         148    1.0023228  0.025998134 
         149    1.0004627  0.039468445 
         150   0.99571492  0.027235651 
         151   0.99876451  0.039218651 
         152     1.002862     0.037691 
         153   0.98916502  0.031293184 
         154   0.99645647  0.024703393 
         155    1.0007021  0.033389811 
         156   0.99983064  0.032376041 
         157    1.0009515  0.031319015 
         158   0.99481466  0.027845853 
         159   0.99476133  0.024015787 
         160    1.0034158  0.017923573 
         161   0.99823068  0.029077544 
         162    0.9979261  0.038218188 
         163   0.99483858  0.030947577 
         164     1.003011  0.032824238 
         165   0.99333065  0.018130993 
         166   0.99726387  0.026613285 
         167   0.99723286  0.035882882 
         168   0.99779464  0.030774726 
         169    1.0047578  0.034089038 
         170    0.9910305  0.014157914 
         171    1.0028732  0.037260899 
         172   0.99617747  0.039229748 
         173   0.99430246  0.027581099 
         174   0.99416287  0.028811297 
         175   0.99761489  0.035353692 
         176   0.99648027  0.040760192 
         177   0.99327073  0.042033695 
         178   0.99906219  0.037093837 
         179   0.99906426  0.030286905 
         180    1.0067574  0.026535116 
         181    0.9997656  0.034763094 
         182   0.99738699   0.02215971 
         183    1.0025696  0.040704361 
         184   0.99607901  0.039019755 
         185    0.9983129  0.046404044 
         186    1.0002469  0.048338534 
         187   0.99997015  0.027212705 
         188   0.99903222  0.037816558 
         189   0.99924706   0.03554028 
         190    1.0017856  0.042547365 
         191   0.99805816  0.048711095 
         192   0.99892428  0.034676344 
         193   0.99784568  0.032373368 
         194    1.0004624  0.033019193 
         195   0.99979303  0.026956947 
         196    1.0016599  0.039345747 
         197    1.0020046  0.041747769 
         198    1.0016552  0.037297053 
         199    1.0011155  0.046923868 
         200    1.0081515  0.030574778 
         201    1.0000864  0.031402178 
         202   0.99636535  0.031554901 
         203    1.0005099  0.036126052 
         204    1.0035696  0.032318812 
         205   0.99886177  0.045027558 
Loop time of 1184.3 on 8 procs for 205000 steps with 42592 atoms

Performance: 14955.658 tau/day, 173.098 timesteps/s
98.9% CPU use with 8 MPI tasks x no OpenMP threads

MPI task timing breakdown:
Section |  min time  |  avg time  |  max time  |%varavg| %total
---------------------------------------------------------------
Pair    | 12.846     | 509.13     | 1021.2     |2133.1 | 42.99
Neigh   | 2.2988     | 45.751     | 89.803     | 620.2 |  3.86
Comm    | 40.587     | 600.21     | 1142.7     |2149.8 | 50.68
Output  | 0.0056054  | 0.0071326  | 0.0081315  |   1.4 |  0.00
Modify  | 11.323     | 17.707     | 23.491     | 134.5 |  1.50
Other   |            | 11.5       |            |       |  0.97

Nlocal:    5324 ave 9949 max 839 min
Histogram: 4 0 0 0 0 0 0 0 0 4
Nghost:    5539 ave 8726 max 2336 min
Histogram: 4 0 0 0 0 0 0 0 0 4
Neighs:    227320 ave 463119 max 5230 min
Histogram: 4 0 0 0 0 0 0 0 0 4

Total # of neighbors = 1818563
Ave neighs/atom = 42.6973
Neighbor list builds = 6746
Dangerous builds = 0
Total wall time: 0:19:44
