LAMMPS (18 Jun 2019)
Reading data file ...
  orthogonal box = (0 0 0) to (80 40 40)
  4 by 1 by 2 MPI processor grid
  reading atoms ...
  42592 atoms
  reading velocities ...
  42592 velocities
  read_data CPU = 0.138151 secs
Neighbor list info ...
  update every 1 steps, delay 10 steps, check yes
  max neighbors/atom: 2000, page size: 100000
  master list distance cutoff = 3.3
  ghost atom cutoff = 3.3
  binsize = 1.65, bins = 49 25 25
  1 neighbor lists, perpetual/occasional/extra = 1 0 0
  (1) pair lj/cut, perpetual
      attributes: half, newton on
      pair build: half/bin/atomonly/newton
      stencil: half/bin/3d/newton
      bin: standard
Setting up Verlet run ...
  Unit style    : lj
  Current step  : 0
  Time step     : 0.001
Per MPI rank memory allocation (min/avg/max) = 1.512 | 4.423 | 7.324 Mbytes
Step Temp E_pair E_mol TotEng Press 
       0   0.33304438   -4.9343368            0    -4.434782   -2.3932238 
  200000   0.70341963    -5.429352            0   -4.3742473  -0.01140841 
Loop time of 1526.05 on 8 procs for 200000 steps with 42592 atoms

Performance: 11323.324 tau/day, 131.057 timesteps/s
99.3% CPU use with 8 MPI tasks x no OpenMP threads

MPI task timing breakdown:
Section |  min time  |  avg time  |  max time  |%varavg| %total
---------------------------------------------------------------
Pair    | 0.055868   | 653.28     | 1353.3     |2558.9 | 42.81
Neigh   | 0.061286   | 43.412     | 90.035     | 658.5 |  2.84
Comm    | 47.534     | 786.28     | 1489.1     |2458.7 | 51.52
Output  | 4.0052e-05 | 5.0211e-05 | 5.8638e-05 |   0.0 |  0.00
Modify  | 21.205     | 30.206     | 53.035     | 196.7 |  1.98
Other   |            | 12.88      |            |       |  0.84

Nlocal:    5324 ave 10891 max 69 min
Histogram: 4 0 0 0 0 0 0 0 0 4
Nghost:    4728.38 ave 9397 max 104 min
Histogram: 4 0 0 0 0 0 0 0 0 4
Neighs:    308805 ave 641814 max 20 min
Histogram: 4 0 0 0 0 0 0 0 0 4

Total # of neighbors = 2470443
Ave neighs/atom = 58.0025
Neighbor list builds = 5463
Dangerous builds = 0
Setting up Verlet run ...
  Unit style    : lj
  Current step  : 200000
  Time step     : 0.001
Per MPI rank memory allocation (min/avg/max) = 1.557 | 4.933 | 8.456 Mbytes
Time Temp Press 
         200   0.70341963  -0.01140841 
         201    0.7030483 -0.021890824 
         202   0.69903695 -0.030459462 
         203   0.70864109 -0.016072486 
         204   0.70199512 -0.018354955 
         205   0.70007685  -0.01276403 
Loop time of 38.2997 on 8 procs for 5000 steps with 42592 atoms

Performance: 11279.473 tau/day, 130.549 timesteps/s
99.3% CPU use with 8 MPI tasks x no OpenMP threads

MPI task timing breakdown:
Section |  min time  |  avg time  |  max time  |%varavg| %total
---------------------------------------------------------------
Pair    | 0.0022626  | 16.349     | 34.155     | 404.9 | 42.69
Neigh   | 0.0017372  | 1.0891     | 2.2739     | 104.3 |  2.84
Comm    | 0.97359    | 20.077     | 37.624     | 391.8 | 52.42
Output  | 0.00015029 | 0.00019323 | 0.00022371 |   0.0 |  0.00
Modify  | 0.28458    | 0.46372    | 0.64789    |  23.1 |  1.21
Other   |            | 0.3208     |            |       |  0.84

Nlocal:    5324 ave 10931 max 66 min
Histogram: 4 0 0 0 0 0 0 0 0 4
Nghost:    4737.62 ave 9329 max 132 min
Histogram: 4 0 0 0 0 0 0 0 0 4
Neighs:    308475 ave 643419 max 23 min
Histogram: 4 0 0 0 0 0 0 0 0 4

Total # of neighbors = 2467798
Ave neighs/atom = 57.9404
Neighbor list builds = 137
Dangerous builds = 0
Total wall time: 0:26:04
