LAMMPS (18 Jun 2019)
Reading data file ...
  orthogonal box = (0 0 0) to (80 40 40)
  4 by 1 by 2 MPI processor grid
  reading atoms ...
  45508 atoms
  reading velocities ...
  45508 velocities
  read_data CPU = 0.128532 secs
Neighbor list info ...
  update every 1 steps, delay 10 steps, check yes
  max neighbors/atom: 2000, page size: 100000
  master list distance cutoff = 3.3
  ghost atom cutoff = 3.3
  binsize = 1.65, bins = 49 25 25
  1 neighbor lists, perpetual/occasional/extra = 1 0 0
  (1) pair lj/cut, perpetual
      attributes: half, newton on
      pair build: half/bin/atomonly/newton
      stencil: half/bin/3d/newton
      bin: standard
Setting up Verlet run ...
  Unit style    : lj
  Current step  : 0
  Time step     : 0.001
Per MPI rank memory allocation (min/avg/max) = 1.619 | 4.481 | 7.329 Mbytes
Step Temp E_pair E_mol TotEng Press 
       0   0.33353507   -4.6252921            0   -4.1250005   -2.3805389 
  200000   0.99658753   -3.8823626            0   -2.3875142   0.02450292 
 time of 1233.01 on 8 procs for 200000 steps with 45508 atoms

Performance: 14014.507 tau/day, 162.205 timesteps/s
98.9% CPU use with 8 MPI tasks x no OpenMP threads

MPI task timing breakdown:
Section |  min time  |  avg time  |  max time  |%varavg| %total
---------------------------------------------------------------
Pair    | 27.614     | 538.18     | 1068.2     |2138.3 | 43.65
Neigh   | 4.3583     | 48.655     | 93.964     | 614.8 |  3.95
Comm    | 37.622     | 616.62     | 1174.4     |2184.5 | 50.01
Output  | 3.8281e-05 | 4.6799e-05 | 5.597e-05  |   0.0 |  0.00
Modify  | 11.679     | 17.874     | 23.726     | 133.1 |  1.45
Other   |            | 11.68      |            |       |  0.95

Nlocal:    5688.5 ave 10139 max 1169 min
Histogram: 4 0 0 0 0 0 0 0 0 4
Nghost:    6159.25 ave 9270 max 3100 min
Histogram: 4 0 0 0 0 0 0 0 0 4
Neighs:    244180 ave 477915 max 13168 min
Histogram: 4 0 0 0 0 0 0 0 0 4

Total # of neighbors = 1953440
Ave neighs/atom = 42.9252
Neighbor list builds = 6629
Dangerous builds = 0
Setting up Verlet run ...
  Unit style    : lj
  Current step  : 200000
  Time step     : 0.001
Per MPI rank memory allocation (min/avg/max) = 3.012 | 6.069 | 9.112 Mbytes
Time Temp Press 
         200   0.99658753   0.02450292 
       200.1   0.99971768  0.029608338 
       200.2    1.0005548  0.039700267 
       200.3    1.0005791  0.024404799 
       200.4    1.0034227  0.035232468 
       200.5   0.99983154  0.038793073 
       200.6   0.99932321  0.027873683 
       200.7    1.0016521  0.032110304 
       200.8   0.99668696  0.034660334 
       200.9    1.0055256   0.05024291 
         201   0.99955574  0.028653596 
       201.1    1.0009315  0.036905505 
       201.2   0.99832719  0.029075377 
       201.3    1.0045636  0.035346468 
       201.4   0.99978662  0.026586741 
       201.5   0.99819677  0.022571076 
       201.6    0.9974473  0.022910516 
       201.7    1.0014304   0.01128788 
       201.8    1.0019632  0.034430344 
       201.9   0.99589836  0.027103238 
         202   0.99948103  0.033041438 
       202.1    1.0051015  0.021934419 
       202.2    1.0012746  0.025189974 
       202.3    1.0000954  0.042746449 
       202.4     1.007493  0.031907879 
       202.5   0.99434193  0.023241353 
       202.6   0.99876437  0.027502426 
       202.7   0.99984567  0.043550716 
       202.8    1.0019022  0.040183513 
       202.9   0.99923564  0.035097762 
         203    1.0038051  0.043614947 
       203.1   0.99935742  0.044753107 
       203.2   0.99873929  0.036311853 
       203.3    1.0018556  0.040333588 
       203.4   0.99862467  0.041267947 
       203.5   0.99876007  0.034317278 
       203.6    1.0018982  0.056295328 
       203.7   0.99444809  0.042736899 
       203.8   0.99687216  0.043906214 
       203.9   0.99985194  0.041829114 
         204    1.0023801  0.024387948 
       204.1   0.99621411  0.021375803 
       204.2   0.99751527  0.029839335 
       204.3    1.0012219   0.04388974 
       204.4    1.0012557  0.033441169 
       204.5   0.99863873  0.038154675 
       204.6    1.0047378  0.050292517 
       204.7   0.99777843  0.043816886 
       204.8   0.99685661  0.037928068 
       204.9    1.0074705  0.042718561 
         205   0.99835806  0.032720004 
Loop time of 30.1297 on 8 procs for 5000 steps with 45508 atoms

Performance: 14338.030 tau/day, 165.949 timesteps/s
98.8% CPU use with 8 MPI tasks x no OpenMP threads

MPI task timing breakdown:
Section |  min time  |  avg time  |  max time  |%varavg| %total
---------------------------------------------------------------
Pair    | 0.74442    | 13.063     | 25.631     | 330.2 | 43.35
Neigh   | 0.1163     | 1.1628     | 2.2114     |  93.6 |  3.86
Comm    | 0.97726    | 14.682     | 28.117     | 340.0 | 48.73
Output  | 0.49643    | 0.49679    | 0.49705    |   0.0 |  1.65
Modify  | 0.29217    | 0.43976    | 0.57825    |  20.5 |  1.46
Other   |            | 0.286      |            |       |  0.95

Nlocal:    5688.5 ave 10143 max 1173 min
Histogram: 4 0 0 0 0 0 0 0 0 4
Nghost:    6185.12 ave 9318 max 3110 min
Histogram: 4 0 0 0 0 0 0 0 0 4
Neighs:    243854 ave 477668 max 12846 min
Histogram: 4 0 0 0 0 0 0 0 0 4

Total # of neighbors = 1950836
Ave neighs/atom = 42.868
Neighbor list builds = 162
Dangerous builds = 0
Total wall time: 0:21:03
