LAMMPS (18 Jun 2019)
Reading data file ...
  orthogonal box = (0 0 0) to (80 40 40)
  4 by 1 by 2 MPI processor grid
  reading atoms ...
  45508 atoms
  reading velocities ...
  45508 velocities
  read_data CPU = 0.135864 secs
Neighbor list info ...
  update every 1 steps, delay 10 steps, check yes
  max neighbors/atom: 2000, page size: 100000
  master list distance cutoff = 3.3
  ghost atom cutoff = 3.3
  binsize = 1.65, bins = 49 25 25
  1 neighbor lists, perpetual/occasional/extra = 1 0 0
  (1) pair lj/cut, perpetual
      attributes: half, newton on
      pair build: half/bin/atomonly/newton
      stencil: half/bin/3d/newton
      bin: standard
Setting up Verlet run ...
  Unit style    : lj
  Current step  : 0
  Time step     : 0.001
Per MPI rank memory allocation (min/avg/max) = 3.025 | 5.887 | 8.735 Mbytes
Time Temp Press 
           0   0.33353507   -2.3805389 
         0.1   0.94331093   -1.4081322 
         0.2    1.0102505   0.11051983 
         0.3    1.0006213  0.098443278 
         0.4   0.99071858  0.090615653 
         0.5    1.0026695  0.097340058 
         0.6    1.0076638   0.10581718 
         0.7   0.99517509   0.10051483 
         0.8    0.9937746   0.08419119 
         0.9    1.0060188   0.07717723 
           1    1.0035618  0.090119831 
         1.1   0.99297427  0.079057084 
         1.2    0.9988676  0.090247997 
         1.3    1.0064761  0.081986033 
         1.4   0.99952566  0.089344192 
         1.5   0.99506791  0.088812273 
         1.6    1.0024082  0.092048121 
         1.7    1.0046864  0.096069328 
         1.8    0.9961294  0.084602015 
         1.9   0.99676083  0.087997325 
           2    1.0060139  0.077016583 
         2.1   0.99587113    0.0856706 
         2.2   0.99688643  0.069583988 
         2.3     1.006247  0.084554715 
         2.4   0.99614409    0.0697754 
         2.5   0.99864201   0.07860739 
         2.6    1.0046874  0.085703443 
         2.7    1.0019717  0.094552055 
         2.8   0.99483306  0.087644868 
         2.9    1.0001749  0.083516455 
           3    1.0036845  0.099369814 
         3.1    1.0005064  0.084859356 
         3.2     1.005505  0.088497022 
         3.3    1.0000346  0.074469926 
         3.4   0.99809213  0.079820703 
         3.5    1.0002369  0.072853768 
         3.6   0.99925554  0.074810619 
         3.7    0.9995159  0.070608924 
         3.8    1.0003085  0.088442654 
         3.9    1.0013361  0.079090163 
           4   0.99748548  0.090879979 
         4.1    1.0013866  0.083497107 
         4.2   0.99836384  0.090164292 
         4.3   0.99898746   0.09912331 
         4.4    1.0026142   0.07798582 
         4.5   0.99654939  0.095496536 
         4.6   0.99831135   0.10176259 
         4.7   0.99591169  0.090815151 
         4.8   0.99568728  0.094350696 
         4.9   0.99862788  0.097830687 
           5   0.99638874   0.11176213 
         5.1    1.0039655   0.09629873 
         5.2    1.0001052   0.10401845 
         5.3   0.99467194   0.10830289 
         5.4    1.0043061  0.092323835 
         5.5   0.99636269  0.096876555 
         5.6   0.99875793   0.10429781 
         5.7    1.0055785   0.10614976 
         5.8   0.99214607  0.094933276 
         5.9    1.0001668    0.1063271 
           6    1.0028991   0.10983745 
         6.1      1.00356   0.10535615 
         6.2    1.0011034   0.10890967 
         6.3   0.99554456   0.11440345 
         6.4    1.0017062   0.11854358 
         6.5    1.0008938   0.11126454 
         6.6   0.99642625  0.098692066 
         6.7    1.0031877  0.096450223 
         6.8    1.0014956  0.099680841 
         6.9    1.0001208   0.10735782 
           7    0.9982711   0.10848906 
         7.1    1.0003576   0.11222157 
         7.2    1.0027904   0.10939905 
         7.3   0.99832718   0.10109576 
         7.4   0.99817667   0.12108265 
         7.5    1.0102789   0.11216324 
         7.6    1.0012942   0.11108365 
         7.7   0.99545278  0.095744309 
         7.8   0.99873164  0.098362922 
         7.9    1.0004649   0.11212793 
           8    1.0000802   0.11726463 
         8.1   0.99950942      0.11202 
         8.2    1.0087205    0.1224573 
         8.3   0.99841879  0.098439211 
         8.4   0.99555212  0.098597145 
         8.5   0.99996556   0.10595284 
         8.6    1.0052911   0.10125708 
         8.7    1.0030732  0.096537125 
         8.8   0.99500425   0.11423405 
         8.9   0.99896838   0.10827775 
           9   0.99657012  0.092294063 
         9.1   0.99863923   0.10598978 
         9.2     1.004593   0.11344906 
         9.3   0.99858333   0.11180056 
         9.4   0.99678746  0.099605499 
         9.5    1.0048955  0.095505055 
         9.6   0.99431488  0.076536032 
         9.7     1.002994  0.090876823 
         9.8    0.9988889  0.098178218 
         9.9    1.0002502    0.0803713 
          10    1.0062992  0.096990175 
        10.1   0.99931135  0.087867324 
        10.2   0.99644765  0.065691235 
        10.3    1.0013936  0.078130054 
        10.4    1.0096398  0.088580154 
        10.5   0.99966298  0.089108589 
        10.6   0.99547343  0.078663609 
        10.7    1.0038204  0.075641339 
        10.8   0.99699089   0.08139484 
        10.9    1.0012466  0.078798184 
          11    1.0053771   0.07593754 
        11.1    1.0027099  0.084555155 
        11.2   0.99408863   0.08827753 
        11.3   0.99540641  0.097724078 
        11.4    0.9978203  0.078525779 
        11.5     1.000293    0.1019717 
        11.6   0.99715485  0.085998483 
        11.7    1.0068528  0.079240446 
        11.8    1.0022689  0.079072258 
        11.9     0.995973  0.075113723 
          12   0.99793158  0.071138177 
        12.1   0.99157703  0.082280355 
        12.2     1.002224  0.075981167 
        12.3    1.0023836   0.06937267 
        12.4    1.0020973  0.076899915 
        12.5   0.99729643  0.086932479 
        12.6   0.99058603  0.072848282 
        12.7    1.0007401  0.076055428 
        12.8    1.0037426  0.084744065 
        12.9   0.99559725  0.059533823 
          13    1.0005448  0.067791732 
        13.1   0.99697844  0.066368037 
        13.2   0.99939222  0.051421012 
        13.3     1.004489  0.068560851 
        13.4   0.99564029  0.082675409 
        13.5    0.9907824  0.072176104 
        13.6   0.99830908  0.065801285 
        13.7    1.0055427  0.069905219 
        13.8    1.0029607  0.065108942 
        13.9   0.99747589  0.059011063 
          14   0.99392007  0.061458488 
        14.1    1.0037903  0.046811745 
        14.2   0.99690622  0.065918457 
        14.3    1.0026417  0.066491131 
        14.4   0.99980698  0.075395498 
        14.5     1.000761  0.054054092 
        14.6   0.99982938  0.065212653 
        14.7   0.99815598  0.042870722 
        14.8    1.0056013  0.050732806 
        14.9   0.99993506  0.057252319 
          15   0.99613632  0.066407023 
        15.1    0.9998485  0.057072163 
        15.2    1.0019545  0.061372093 
        15.3    1.0024509  0.064321259 
        15.4    0.9893522  0.050568961 
        15.5   0.99894622  0.046424394 
        15.6    1.0037221  0.056607367 
        15.7   0.99587072  0.048623598 
        15.8   0.99773069  0.044573184 
        15.9     1.002011  0.040342848 
          16   0.99135966  0.038513641 
        16.1    1.0010805  0.046457746 
        16.2    1.0074048  0.056244439 
        16.3   0.99828619  0.054848482 
        16.4   0.99999189  0.050522402 
        16.5    1.0056302  0.048499473 
        16.6    1.0049443  0.051972728 
        16.7     1.000721  0.047514563 
        16.8    0.9951398  0.037154495 
        16.9    1.0026888  0.056327383 
          17    1.0058124   0.05176502 
        17.1   0.99792833  0.038370294 
        17.2   0.99954684   0.03956523 
        17.3     1.003807  0.029428938 
        17.4   0.99896459  0.035996586 
        17.5   0.99899602  0.036665667 
        17.6    1.0022401  0.058893827 
        17.7   0.99878428   0.03866685 
        17.8   0.99938191   0.03174582 
        17.9    1.0013798  0.033727601 
          18   0.98911836  0.022063934 
        18.1   0.99783751  0.042668372 
        18.2    1.0052217  0.045726478 
        18.3   0.99765514  0.041414558 
        18.4    1.0004769  0.045605803 
        18.5    1.0060923  0.022368248 
        18.6   0.99637036  0.029010625 
        18.7    1.0063533  0.021080242 
        18.8    1.0027364  0.033172903 
        18.9   0.99865649  0.042099213 
          19     1.001254  0.030300148 
        19.1    1.0019905   0.03184661 
        19.2   0.99736135  0.034752417 
        19.3   0.99799785  0.045120538 
        19.4    1.0108318  0.034560125 
        19.5    1.0006507  0.030364833 
        19.6   0.99811154  0.038345249 
        19.7    1.0034603   0.02584273 
        19.8   0.99949051  0.028815771 
        19.9   0.99924225  0.023563431 
          20    1.0087203  0.030301014 
        20.1   0.99992437  0.040473299 
        20.2   0.99577833  0.032463276 
        20.3    1.0058583  0.036266944 
        20.4    0.9975807   0.02612493 
        20.5   0.99542292  0.019723457 
        20.6   0.99290811  0.032502677 
        20.7    1.0007014  0.037555254 
        20.8    1.0017944  0.038687346 
        20.9   0.99947259  0.036612786 
          21    0.9975929  0.030814035 
        21.1    1.0040143  0.028928414 
        21.2    1.0019936  0.036211742 
        21.3   0.99877847  0.048644525 
        21.4   0.99875392  0.021736984 
        21.5    1.0050351  0.030847189 
        21.6   0.99836241  0.025421452 
        21.7   0.99730153  0.035540245 
        21.8    1.0016887  0.024192951 
        21.9    1.0050465  0.019059522 
          22   0.99704932  0.019480058 
        22.1   0.99971262  0.026319539 
        22.2   0.99468126  0.024115484 
        22.3    1.0030903  0.041567818 
        22.4   0.99696351   0.02968591 
        22.5    1.0001992  0.024022459 
        22.6     1.002694  0.025858781 
        22.7    0.9963455  0.026609473 
        22.8    1.0063455  0.028551133 
        22.9   0.99870331 0.0041543497 
          23   0.99977966  0.015156797 
        23.1    1.0024852  0.021451937 
        23.2   0.99875392  0.020770941 
        23.3   0.99759793  0.016915661 
        23.4    1.0029346  0.027133661 
        23.5     0.998938  0.018386867 
        23.6    0.9896734  0.018465017 
        23.7    1.0023706  0.014383178 
        23.8    1.0028883   0.02183273 
        23.9     1.003574  0.016163216 
          24   0.99731706 0.0065566342 
        24.1   0.99800133  0.025742362 
        24.2     1.004238   0.02614156 
        24.3    1.0049509  0.020547914 
        24.4   0.99692616  0.015952382 
        24.5   0.99980585  0.024325718 
        24.6     1.003444  0.032429897 
        24.7   0.99180861  0.023006818 
        24.8    1.0044553  0.027039487 
        24.9    1.0021655  0.022125473 
          25   0.99833011  0.017942531 
        25.1    0.9956787  0.016166725 
        25.2    1.0042394  0.023552866 
        25.3    1.0013511  0.012015805 
        25.4   0.99525714  0.017346356 
        25.5     1.002944  0.025596893 
        25.6    1.0008749  0.017611056 
        25.7   0.99898577  0.012626647 
        25.8   0.99668664  0.018868697 
        25.9    1.0008124 0.0056284967 
          26    1.0006863  0.017677759 
        26.1    1.0012869  0.022794787 
        26.2   0.99841056 0.0019514661 
        26.3    1.0080193  0.026756049 
        26.4    1.0028303  0.030972147 
        26.5   0.99652587  0.015488791 
        26.6   0.99820074  0.018732028 
        26.7    1.0030863  0.031784673 
        26.8   0.99481685  0.017024074 
        26.9     1.000528  0.023042301 
          27    1.0024688  0.031427434 
        27.1   0.99544924  0.012461738 
        27.2    1.0024602  0.021686071 
        27.3   0.98998774   0.01457374 
        27.4    1.0018197  0.033893158 
        27.5   0.99949497  0.028082484 
        27.6    1.0021918  0.024007201 
        27.7    1.0053712  0.016719158 
        27.8   0.99769834 0.0033199596 
        27.9   0.99861331  0.010524516 
          28   0.99876348  0.028269752 
        28.1    1.0031323 0.0071287692 
        28.2    1.0061202  0.017987883 
        28.3   0.99990165  0.012455884 
        28.4   0.99253476  0.021292084 
        28.5   0.99898488  0.021305593 
        28.6    1.0033957  0.016800704 
        28.7    1.0032322  0.046354683 
        28.8    1.0009499  0.030934751 
        28.9   0.99498217  0.036746283 
          29       1.0033  0.024833116 
        29.1    1.0041423  0.031867019 
        29.2   0.99673838  0.036738127 
        29.3   0.99842798  0.038133037 
        29.4    1.0057356  0.035591206 
        29.5   0.99746864  0.034049683 
        29.6   0.99966771  0.019006659 
        29.7    1.0004803  0.030127213 
        29.8    1.0056584  0.013121461 
        29.9    1.0008937  0.016056799 
          30   0.99854468  0.024347182 
        30.1   0.99931853  0.033164115 
        30.2    1.0032777  0.029997414 
        30.3   0.99287326   0.01563929 
        30.4   0.99656368  0.018625335 
        30.5    1.0040549  0.025012369 
        30.6    1.0051979  0.036826748 
        30.7    1.0018028  0.025977475 
        30.8   0.99390298  0.024719484 
        30.9    0.9952574  0.027016906 
          31    1.0045662  0.034706036 
        31.1    1.0016528  0.031407815 
        31.2    1.0000138  0.031360625 
        31.3    1.0026721  0.020357499 
        31.4    0.9997506  0.021659796 
        31.5   0.99878117   0.02894974 
        31.6   0.99666189  0.031466955 
        31.7   0.99970071  0.036856803 
        31.8    1.0013891  0.037747494 
        31.9   0.99900288  0.042571942 
          32   0.99762354  0.051034522 
        32.1    1.0039133  0.040859576 
        32.2   0.99716018  0.035753379 
        32.3    1.0043782  0.039247249 
        32.4    1.0045239  0.025147539 
        32.5    1.0033957  0.035584391 
        32.6   0.99451253  0.041237195 
        32.7   0.99764925  0.034466076 
        32.8    1.0046336  0.044113077 
        32.9    1.0018655  0.050433279 
          33   0.99693192   0.02482245 
        33.1   0.99982965  0.025853915 
        33.2    1.0021699  0.016275354 
        33.3    1.0042379  0.031821745 
        33.4   0.99326159  0.027827913 
        33.5    1.0026331  0.031210791 
        33.6   0.99276145  0.033894545 
        33.7    1.0002106  0.032823252 
        33.8    1.0062674  0.030012614 
        33.9   0.98907638  0.021187624 
          34   0.99991443  0.042328755 
        34.1    1.0029498  0.042890528 
        34.2    0.9974641  0.055959428 
        34.3    1.0007974  0.028724931 
        34.4    1.0022141  0.037578325 
        34.5   0.99213988  0.032154929 
        34.6    1.0007754  0.039453421 
        34.7    1.0047102  0.054117855 
        34.8    1.0017707  0.043043297 
        34.9   0.99638986  0.038318396 
          35    1.0009475   0.03734125 
        35.1    1.0069395  0.032386067 
        35.2    1.0006028  0.027913385 
        35.3    0.9997409  0.043854398 
        35.4   0.99885118  0.044819018 
        35.5    1.0059452  0.051029264 
        35.6   0.99779801  0.044139587 
        35.7   0.99767773  0.047557496 
        35.8     1.005817  0.042552763 
        35.9   0.99843234  0.030176589 
          36   0.99651137  0.033871551 
        36.1    1.0020743  0.043795268 
        36.2   0.99967369  0.045988909 
        36.3    1.0018037  0.036426479 
        36.4    1.0003741  0.045202008 
        36.5    1.0051472   0.05270159 
        36.6    1.0025712  0.048397015 
        36.7   0.99775773  0.040276312 
        36.8   0.99819467  0.050081904 
        36.9    1.0024555  0.042601303 
          37   0.99837288  0.041488346 
        37.1   0.99534002  0.045411015 
        37.2    1.0012353  0.026226667 
        37.3   0.99809886  0.030191721 
        37.4    1.0003466  0.035941278 
        37.5    1.0015147  0.059481619 
        37.6     1.011897  0.068326216 
        37.7    1.0001418  0.037390859 
        37.8   0.99903363  0.046109269 
        37.9   0.99334546  0.037454155 
          38    1.0091662  0.046444068 
        38.1    0.9974406  0.045401602 
        38.2    1.0020209  0.039969134 
        38.3    1.0059372  0.045695279 
        38.4   0.99719507  0.038977775 
        38.5    1.0001376   0.04086998 
        38.6    1.0018081  0.044739988 
        38.7    1.0010761  0.057102184 
        38.8    1.0003697  0.051465409 
        38.9   0.99820266  0.049802008 
          39   0.98977078  0.029832567 
        39.1    1.0022538  0.034254656 
        39.2    1.0015291  0.047286555 
        39.3   0.99636511  0.054537528 
        39.4   0.99746117   0.04618353 
        39.5    1.0026232  0.045076729 
        39.6   0.99621076  0.054351536 
        39.7     1.002217  0.043092592 
        39.8    1.0011531  0.046082537 
        39.9    1.0031618  0.046941654 
          40    1.0005715  0.055902422 
        40.1    0.9959648  0.041756823 
        40.2   0.99586525  0.048481093 
        40.3   0.99501027  0.060428362 
        40.4    1.0032383   0.04036015 
        40.5   0.99612465  0.045843085 
        40.6   0.99371617  0.041113004 
        40.7    1.0044205  0.028413502 
        40.8    1.0054388  0.031513712 
        40.9    1.0006692  0.041212775 
          41   0.99179596  0.055267552 
        41.1    1.0020986  0.055562242 
        41.2   0.99942864  0.040091248 
        41.3   0.99877066  0.045225887 
        41.4   0.98732097  0.044276445 
        41.5    1.0010338  0.047995775 
        41.6    1.0021696  0.031360833 
        41.7   0.99879262  0.046060619 
        41.8   0.99546501  0.045939375 
        41.9    1.0065576  0.052799353 
          42    1.0072076  0.057662699 
        42.1   0.99685746  0.072117683 
        42.2   0.99896953  0.058987375 
        42.3    1.0020901  0.053598873 
        42.4    1.0049855  0.056071082 
        42.5   0.99630194  0.042980165 
        42.6   0.99995177  0.061627684 
        42.7    1.0042408  0.053451933 
        42.8   0.99650732  0.054198323 
        42.9   0.99610028  0.038994491 
          43    1.0021791   0.04297949 
        43.1    1.0012852  0.053546193 
        43.2   0.99983622  0.040818132 
        43.3   0.99826762   0.05341308 
        43.4   0.99992962  0.051911839 
        43.5    1.0035469  0.055406702 
        43.6    1.0022677  0.044918866 
        43.7   0.99737659  0.055987584 
        43.8   0.99669368  0.049298665 
        43.9   0.99827641  0.056419546 
          44    1.0029752  0.042525985 
        44.1   0.99552167  0.036635559 
        44.2    1.0027892   0.05836132 
        44.3    1.0047424  0.054067736 
        44.4    0.9924531  0.046470067 
        44.5    1.0003396  0.049613442 
        44.6   0.99956183  0.048476694 
        44.7   0.99895356  0.046715978 
        44.8    1.0043371  0.048450402 
        44.9   0.99507644    0.0425415 
          45    1.0008591  0.046719599 
        45.1    1.0010687  0.055816618 
        45.2   0.99973674  0.050012266 
        45.3   0.99828291  0.067870035 
        45.4    1.0107069  0.046426465 
        45.5   0.99992078  0.045211203 
        45.6   0.99879525  0.067052491 
        45.7     1.002722  0.035317218 
        45.8     1.001029  0.036642367 
        45.9   0.99366732  0.034795129 
          46     1.000119  0.053659294 
        46.1    1.0043726  0.058529599 
        46.2   0.99733146  0.050474083 
        46.3   0.99664231  0.046024257 
        46.4    1.0045741  0.050982419 
        46.5     1.001056   0.05219056 
        46.6   0.99488268  0.043467811 
        46.7    1.0003392  0.049817259 
        46.8    1.0019058  0.051193955 
        46.9   0.99606753  0.051500312 
          47   0.99931727  0.059002485 
        47.1   0.99721126  0.045728279 
        47.2    1.0068519    0.0387673 
        47.3    1.0014581  0.045108183 
        47.4   0.99433258  0.039987058 
        47.5    1.0026996  0.052447154 
        47.6    1.0023926  0.050381356 
        47.7   0.99396242  0.048737758 
        47.8    1.0032447  0.035542847 
        47.9     1.003112  0.047437253 
          48   0.99553427  0.051341873 
        48.1    1.0008233   0.03944207 
        48.2   0.99912282  0.049977838 
        48.3   0.99536088  0.040771574 
        48.4    1.0000876   0.04550907 
        48.5   0.99838057  0.038818188 
        48.6   0.99834147  0.038632778 
        48.7    1.0085327  0.030241266 
        48.8   0.99685601  0.042450517 
        48.9    1.0000613  0.050834562 
          49    1.0074004  0.057583246 
        49.1   0.99871045  0.034087445 
        49.2    1.0035731  0.045417679 
        49.3   0.99751004   0.04095674 
        49.4    1.0014427  0.049072721 
        49.5    1.0076384  0.039264041 
        49.6   0.99986006  0.043334321 
        49.7   0.99767777  0.043523935 
        49.8   0.99959117  0.032919209 
        49.9    1.0061777  0.048458268 
          50   0.99893991  0.042663228 
        50.1    1.0139834  0.045778401 
        50.2    1.0003503  0.038797142 
        50.3   0.99688653  0.055691436 
        50.4    1.0013112  0.054848036 
        50.5    1.0007485  0.050256602 
        50.6   0.99974019  0.042584164 
        50.7   0.99029888  0.042928646 
        50.8    1.0017351    0.0525931 
        50.9    1.0024388   0.04417552 
          51   0.99919013  0.046389053 
        51.1   0.99968153  0.043269502 
        51.2   0.99931659  0.030398136 
        51.3    0.9988049  0.031846054 
        51.4    1.0060335  0.033206557 
        51.5     1.005859  0.046551491 
        51.6    1.0007563  0.047320231 
        51.7    1.0003907  0.034733301 
        51.8   0.99886524  0.047042165 
        51.9     1.003101  0.030092529 
          52    1.0028211  0.028269838 
        52.1   0.99742334  0.035986089 
        52.2   0.99707434  0.030482566 
        52.3   0.99590862  0.036514809 
        52.4    1.0049093  0.033729575 
        52.5    1.0040822  0.051632197 
        52.6   0.99635968  0.051610287 
        52.7     1.004662   0.02921162 
        52.8    1.0005185  0.039519449 
        52.9    1.0002304  0.047470037 
          53    1.0023499  0.043449978 
        53.1   0.99894107  0.032465297 
        53.2    0.9996233  0.038995582 
        53.3     1.005469  0.038943926 
        53.4   0.99635975  0.037891055 
        53.5   0.99606536  0.046871617 
        53.6    1.0049961  0.036533401 
        53.7   0.99737224  0.031810979 
        53.8   0.99667227  0.033380182 
        53.9    1.0007488  0.030212784 
          54    1.0024559  0.036510038 
        54.1   0.99383292  0.024506906 
        54.2    0.9986478  0.026875707 
        54.3   0.99932438  0.028710667 
        54.4     1.006186  0.046150046 
        54.5    1.0030986   0.03645718 
        54.6   0.99892404  0.031186948 
        54.7    0.9976282  0.026378919 
        54.8    1.0022399   0.03522843 
        54.9   0.99948926  0.038401617 
          55   0.99235585  0.042028341 
        55.1   0.99765587   0.02456214 
        55.2    1.0006823  0.026173515 
        55.3   0.99567491  0.030985279 
        55.4    1.0032467  0.034284941 
        55.5    1.0031761  0.026141762 
        55.6    0.9978194  0.031846291 
        55.7    1.0110659  0.027524076 
        55.8    1.0022507  0.028185385 
        55.9    0.9953081   0.03435055 
          56   0.99620589  0.036781047 
        56.1    1.0037052  0.037672154 
        56.2    1.0033924   0.03240882 
        56.3   0.99847507  0.017266691 
        56.4    0.9927483   0.04321789 
        56.5    1.0029942  0.039590781 
        56.6   0.99538766  0.023790789 
        56.7    1.0038173  0.031888885 
        56.8      1.00474  0.043279337 
        56.9   0.99406077  0.027320761 
          57   0.99524782  0.027515243 
        57.1    1.0058446  0.048044791 
        57.2   0.99859889  0.031323604 
        57.3   0.99573538  0.033758247 
        57.4    1.0037558  0.031229657 
        57.5    1.0021013  0.034899955 
        57.6   0.99600697  0.023487382 
        57.7   0.99755451  0.025922319 
        57.8    1.0035664  0.021767528 
        57.9    1.0060905  0.037397251 
          58   0.99826988   0.03274314 
        58.1   0.99498816   0.03275292 
        58.2    1.0044027   0.03871337 
        58.3   0.99861197  0.032223547 
        58.4   0.99569171  0.032356575 
        58.5   0.99802732  0.025867011 
        58.6    1.0053651  0.033256496 
        58.7    1.0007595  0.038052051 
        58.8   0.99093919  0.024742776 
        58.9   0.99529938  0.029675854 
          59    1.0049957  0.037934446 
        59.1    1.0029226  0.031274425 
        59.2   0.99649786  0.023667028 
        59.3   0.99604628  0.033953041 
        59.4   0.99976392  0.026142081 
        59.5     1.005756  0.043791198 
        59.6     1.004466  0.035886042 
        59.7   0.99482655  0.042407157 
        59.8     1.002014  0.057136821 
        59.9    1.0004321   0.04934561 
          60   0.99915825  0.045970413 
        60.1    0.9979709  0.041269032 
        60.2    1.0016625  0.042151944 
        60.3   0.99378339  0.030235069 
        60.4   0.99706348  0.038736073 
        60.5    1.0034633  0.035127073 
        60.6   0.99653271  0.031794384 
        60.7   0.99478591  0.035606311 
        60.8    1.0028243  0.045643223 
        60.9    1.0047055  0.036478917 
          61   0.99532233  0.044242422 
        61.1   0.99627577  0.022018657 
        61.2    1.0064619  0.038013907 
        61.3    1.0034202  0.044522349 
        61.4    1.0050063   0.04239356 
        61.5   0.99903653  0.041406939 
        61.6    1.0051889  0.025536278 
        61.7    1.0046758   0.04388129 
        61.8   0.99351531  0.027638243 
        61.9    1.0026297  0.033981053 
          62   0.99751247  0.029977152 
        62.1   0.99675718  0.025661793 
        62.2    1.0021969  0.030733093 
        62.3    1.0062579  0.039546896 
        62.4   0.99700905  0.030212804 
        62.5    1.0005984  0.017242831 
        62.6    1.0002556  0.046359854 
        62.7   0.99376188  0.045833357 
        62.8     1.003419  0.042492906 
        62.9   0.99564522   0.03390979 
          63    1.0005574   0.05064235 
        63.1     1.009711  0.045405267 
        63.2    1.0028793  0.039945928 
        63.3   0.99299796  0.037192489 
        63.4   0.99789507  0.030140208 
        63.5    1.0041626  0.031558894 
        63.6    1.0068816  0.040232282 
        63.7   0.99624891  0.031307389 
        63.8    1.0007225  0.039692041 
        63.9    1.0088607   0.03804057 
          64     0.997713  0.024686816 
        64.1   0.99585887  0.032684171 
        64.2    1.0064218  0.041929677 
        64.3   0.99844064  0.041084262 
        64.4   0.99328331  0.044266655 
        64.5    1.0039049  0.035177535 
        64.6   0.99569389  0.038198413 
        64.7    1.0038033  0.030237801 
        64.8    1.0001374  0.032568137 
        64.9   0.99595025  0.036050684 
          65    1.0063469  0.042422863 
        65.1      1.00357   0.04768916 
        65.2   0.99214845  0.030271482 
        65.3   0.99998588   0.03747179 
        65.4    1.0002986  0.030828566 
        65.5    1.0094398  0.042453359 
        65.6   0.99778091  0.038397158 
        65.7    1.0048373  0.035475325 
        65.8    1.0055036  0.034188572 
        65.9   0.99875514  0.041368485 
          66   0.99300097  0.038186445 
        66.1   0.99697405  0.044760869 
        66.2   0.99454041  0.032731597 
        66.3   0.99764679  0.031778218 
        66.4    1.0027441  0.045432354 
        66.5   0.99633421  0.043291562 
        66.6    1.0028103  0.031974445 
        66.7    0.9996207  0.032168653 
        66.8   0.99422636  0.026948323 
        66.9     1.000061  0.027124827 
          67    1.0006175  0.016289313 
        67.1   0.99690084  0.037031727 
        67.2    1.0031727  0.038245111 
        67.3    1.0047475  0.034335494 
        67.4   0.99778854  0.048874754 
        67.5   0.99686328  0.031005076 
        67.6   0.99192396   0.03472019 
        67.7    1.0058142  0.043111712 
        67.8     1.000881  0.043823656 
        67.9   0.99227335  0.046205391 
          68    1.0066923  0.050262457 
        68.1    1.0014945  0.038227086 
        68.2   0.99070879  0.039949984 
        68.3    1.0026299  0.042996822 
        68.4    1.0056634  0.035924265 
        68.5    0.9958708  0.048262008 
        68.6   0.99704018  0.035872435 
        68.7   0.99836885  0.040001737 
        68.8     1.006517  0.048500804 
        68.9   0.99751117  0.024553506 
          69      1.00639  0.037994196 
        69.1    1.0026094  0.049306066 
        69.2   0.99501755  0.040708835 
        69.3    1.0017652  0.039149576 
        69.4   0.99707136  0.044448706 
        69.5   0.99553461  0.054737081 
        69.6    1.0058921  0.055967988 
        69.7    1.0007666  0.045292397 
        69.8   0.99697324  0.031918251 
        69.9    1.0049793  0.040077076 
          70    1.0009658  0.039277927 
        70.1   0.99542476  0.048063489 
        70.2   0.99851963  0.033158641 
        70.3    1.0044925  0.048388285 
        70.4   0.99859537  0.037803324 
        70.5   0.99944393  0.023435836 
        70.6   0.99865961  0.042818535 
        70.7    1.0030831  0.045698871 
        70.8     1.001415  0.035477047 
        70.9    0.9927775  0.027018049 
          71    1.0035418  0.032048326 
        71.1    1.0003607  0.033554851 
        71.2   0.99669748  0.033893302 
        71.3    1.0015701  0.037162663 
        71.4    1.0010469  0.029352501 
        71.5      1.00302  0.050794605 
        71.6   0.99377673  0.038877574 
        71.7    1.0030387  0.045218958 
        71.8   0.99764525  0.046216473 
        71.9   0.99764974  0.035919782 
          72    1.0046513  0.036947813 
        72.1   0.99984124  0.035630355 
        72.2   0.98959622  0.030540613 
        72.3    1.0034001  0.031736811 
        72.4   0.99895675  0.043381194 
        72.5   0.99531696  0.037031006 
        72.6    1.0033582  0.039726002 
        72.7    1.0026485  0.050654984 
        72.8    0.9942294  0.030555449 
        72.9   0.99928558  0.037090335 
          73    1.0047862  0.020104047 
        73.1    1.0007983  0.033008522 
        73.2   0.99098877  0.024029682 
        73.3    1.0002752  0.044150608 
        73.4    1.0038627  0.062579514 
        73.5   0.99405893  0.024685685 
        73.6    1.0006769   0.03736024 
        73.7    1.0007441  0.032486782 
        73.8   0.99715992  0.051731373 
        73.9     1.005661  0.034003453 
          74    1.0036934  0.038062152 
        74.1    1.0020739  0.053103876 
        74.2    1.0010496  0.048416881 
        74.3   0.99791422  0.042774134 
        74.4    1.0012727  0.046196981 
        74.5    1.0033584  0.036129362 
        74.6    1.0060343  0.035485931 
        74.7    1.0007487  0.051693375 
        74.8    1.0007397  0.029025355 
        74.9   0.99912725  0.030081229 
          75   0.99723798  0.031106921 
        75.1    1.0039582  0.033429644 
        75.2   0.99780609  0.036709016 
        75.3   0.99688642  0.043847701 
        75.4    1.0022209  0.038261944 
        75.5   0.99675607  0.040002344 
        75.6   0.99589611  0.034390294 
        75.7   0.99741374  0.035012262 
        75.8    1.0035329  0.041340573 
        75.9    1.0012733  0.052630402 
          76   0.99748291  0.024228964 
        76.1   0.99631295  0.038190078 
        76.2    1.0030327  0.042847569 
        76.3    1.0065022  0.049679548 
        76.4   0.99395524  0.044566078 
        76.5   0.99922707  0.041700522 
        76.6    1.0037806   0.04872428 
        76.7    1.0042718  0.039846206 
        76.8    1.0002049  0.033975477 
        76.9   0.99446157  0.039076531 
          77    1.0014182  0.047887997 
        77.1    1.0009717  0.031293768 
        77.2   0.99945857  0.038785576 
        77.3   0.99841731  0.039119292 
        77.4   0.99816405  0.044245329 
        77.5    1.0054809   0.05473925 
        77.6   0.99654616  0.048479846 
        77.7    1.0038632   0.05717095 
        77.8    1.0025257  0.058162988 
        77.9   0.99448341  0.026833515 
          78   0.99764357  0.037852803 
        78.1    1.0045574  0.036023631 
        78.2   0.99783659  0.047799316 
        78.3   0.99836054  0.047563697 
        78.4    1.0008862  0.035244851 
        78.5     1.001385  0.042529567 
        78.6   0.99966297  0.029861583 
        78.7   0.99894063  0.044176122 
        78.8    1.0052454  0.055414775 
        78.9   0.99607979  0.043067399 
          79    1.0015598  0.040843235 
        79.1    1.0029626  0.045653706 
        79.2     1.005485  0.052642512 
        79.3   0.99652023  0.035798135 
        79.4    1.0079672  0.040392017 
        79.5    1.0007761   0.04314047 
        79.6    0.9997229   0.04257763 
        79.7   0.99868937  0.047292749 
        79.8   0.99930789  0.043537232 
        79.9    1.0062802  0.043471519 
          80    1.0003913  0.036965954 
        80.1   0.99864722  0.047176581 
        80.2    1.0005345   0.03083335 
        80.3     0.998883  0.037213029 
        80.4   0.99687529   0.05489645 
        80.5    1.0006815  0.041684799 
        80.6    1.0017488  0.051969276 
        80.7     1.003139  0.050332225 
        80.8    1.0011486  0.035355749 
        80.9   0.99070808  0.039016195 
          81   0.99844864  0.043332715 
        81.1    1.0072739  0.035819339 
        81.2   0.99830019  0.037487787 
        81.3   0.99520449  0.040904665 
        81.4    1.0030829  0.042988935 
        81.5     1.002475  0.057759792 
        81.6   0.99856281  0.046454125 
        81.7    1.0016763  0.043109521 
        81.8    1.0027307  0.035250234 
        81.9   0.99943821  0.031602969 
          82   0.99808414  0.039745113 
        82.1    1.0018399  0.050013524 
        82.2    1.0020797  0.043005692 
        82.3    1.0009563  0.054649281 
        82.4   0.99929033  0.045499038 
        82.5   0.99537029  0.025055414 
        82.6   0.99889347  0.031201172 
        82.7    1.0091265  0.035369043 
        82.8    1.0047646  0.045623161 
        82.9    1.0042717  0.040893202 
          83    1.0050819  0.021987711 
        83.1   0.99496329  0.039193041 
        83.2   0.99538482  0.037611032 
        83.3   0.99616666  0.024868639 
        83.4   0.99878372  0.040260055 
        83.5    1.0063717  0.036676738 
        83.6    0.9978542  0.028556121 
        83.7   0.99337041  0.036232168 
        83.8    1.0032848  0.036970852 
        83.9    1.0007509  0.044702554 
          84   0.99904201  0.036632083 
        84.1   0.99985001  0.038959217 
        84.2   0.99700048  0.034278815 
        84.3    1.0050139  0.028111187 
        84.4    1.0039124  0.035603093 
        84.5    1.0027953  0.041623742 
        84.6   0.99546988   0.02712036 
        84.7   0.99798328  0.025781606 
        84.8    1.0091819  0.030256437 
        84.9    1.0000017  0.028911539 
          85    1.0060633   0.04057392 
        85.1    1.0023374  0.040846981 
        85.2    1.0045084  0.035305873 
        85.3    1.0002307  0.037193373 
        85.4   0.99946959  0.030958094 
        85.5   0.99766118  0.057335711 
        85.6    1.0013437  0.027369276 
        85.7    1.0030037  0.040247488 
        85.8   0.99945495  0.041537103 
        85.9   0.99399993  0.043238549 
          86   0.99935933   0.03141937 
        86.1    1.0019488  0.028609696 
        86.2   0.99356707  0.019081602 
        86.3   0.99841403  0.028305983 
        86.4    1.0081749  0.027004457 
        86.5   0.99840013  0.037746422 
        86.6    1.0001639  0.041365153 
        86.7    1.0010261  0.033227506 
        86.8   0.99751124  0.030332912 
        86.9    1.0018091  0.019983992 
          87    1.0017639  0.041290295 
        87.1   0.99888847  0.042307606 
        87.2    0.9973899  0.045425296 
        87.3    1.0055992  0.047313363 
        87.4    1.0028157  0.038027298 
        87.5   0.99705087 0.0094148138 
        87.6     1.000652  0.028407224 
        87.7    1.0013743  0.053666853 
        87.8   0.99317549   0.02978216 
        87.9    1.0032168  0.039608433 
          88   0.99526196  0.027465249 
        88.1   0.99766936  0.020272011 
        88.2    0.9972388  0.035070357 
        88.3    1.0043832   0.02749616 
        88.4    1.0016977   0.03186779 
        88.5    0.9983291  0.036727416 
        88.6    1.0000326  0.039015191 
        88.7    1.0039615  0.049141222 
        88.8    0.9960773  0.043804838 
        88.9   0.99945146  0.046575829 
          89    1.0017328  0.032608188 
        89.1    1.0004067  0.033918267 
        89.2   0.99741798  0.035793775 
        89.3   0.99918204  0.023109098 
        89.4    1.0047976  0.035538085 
        89.5   0.99639639  0.045291313 
        89.6    0.9962987  0.035003349 
        89.7   0.99923455   0.03109495 
        89.8    1.0049857  0.027832744 
        89.9   0.99812205  0.018506462 
          90   0.99716131  0.044882393 
        90.1    1.0044176  0.041787203 
        90.2   0.99894241  0.040087908 
        90.3    0.9971688  0.041627236 
        90.4     1.000924  0.037000068 
        90.5    1.0011665  0.056727454 
        90.6   0.99809112  0.039961947 
        90.7    1.0049943  0.020169884 
        90.8    1.0046875  0.022442086 
        90.9    1.0015151  0.041133321 
          91   0.99110958  0.041586988 
        91.1    1.0005271  0.030650693 
        91.2    1.0085899  0.037788206 
        91.3   0.99862515  0.023392327 
        91.4    1.0046895  0.047625795 
        91.5    1.0032106  0.032755927 
        91.6   0.99744799   0.03746894 
        91.7    1.0057932  0.050454606 
        91.8   0.99292597   0.03869951 
        91.9    1.0013259  0.033363139 
          92    1.0035588  0.034441714 
        92.1    1.0070673  0.043792624 
        92.2   0.99447916  0.034208417 
        92.3    1.0004113  0.049681471 
        92.4     1.002193  0.046110932 
        92.5   0.99755613  0.040284872 
        92.6    1.0006067  0.045364484 
        92.7   0.99659607  0.038559871 
        92.8    1.0005142  0.040868716 
        92.9     1.000601  0.039760808 
          93   0.99357188  0.047547252 
        93.1    1.0038149  0.040035316 
        93.2    1.0001997  0.045288586 
        93.3   0.99713645  0.053014117 
        93.4   0.99837949  0.061285703 
        93.5    1.0084939  0.040106879 
        93.6    0.9979775  0.034525137 
        93.7   0.99464548  0.043123024 
        93.8    1.0052332  0.036606983 
        93.9   0.99728138  0.028155623 
          94    0.9961588  0.036184181 
        94.1    1.0050414  0.021600472 
        94.2    0.9986557  0.034354137 
        94.3   0.99663076  0.022588951 
        94.4    1.0025818  0.047638734 
        94.5    0.9979292   0.04555375 
        94.6     1.001627  0.034536317 
        94.7   0.99120851  0.036948213 
        94.8    1.0008357  0.039631603 
        94.9     1.006893  0.036393077 
          95   0.99953021  0.038975997 
        95.1   0.99054771  0.039735735 
        95.2    1.0003821  0.038722236 
        95.3    1.0019449  0.040641581 
        95.4    1.0011185  0.049235889 
        95.5   0.99736634  0.037188064 
        95.6    1.0001874  0.033499956 
        95.7    1.0043004  0.044082648 
        95.8   0.99552453  0.051100661 
        95.9   0.99494675  0.043797533 
          96    1.0020724  0.047331591 
        96.1   0.99979537  0.042100283 
        96.2   0.99314368  0.045194213 
        96.3    1.0046739  0.057378148 
        96.4    1.0008808  0.047781396 
        96.5   0.99909521  0.029634339 
        96.6   0.99785774  0.031588083 
        96.7    1.0043999  0.038781505 
        96.8   0.99245861  0.033063046 
        96.9    1.0018919  0.045065683 
          97   0.99915612  0.044761817 
        97.1   0.99893823  0.034239732 
        97.2   0.99914141   0.03596291 
        97.3    1.0101626  0.038207158 
        97.4   0.99935368  0.042971438 
        97.5   0.99174299  0.037159084 
        97.6    1.0011254  0.033537131 
        97.7    1.0047674  0.039117183 
        97.8     0.998632  0.047513774 
        97.9   0.99837632  0.037322255 
          98    1.0010355   0.03354516 
        98.1   0.99980156  0.041268598 
        98.2   0.99738122  0.041534532 
        98.3    1.0035125  0.044281092 
        98.4   0.99960079  0.047239256 
        98.5   0.99709313  0.035796404 
        98.6    1.0092686   0.03908138 
        98.7    1.0001022  0.035756463 
        98.8   0.99984864  0.034866089 
        98.9    1.0035389  0.029242039 
          99    1.0043901   0.04524024 
        99.1    1.0028098  0.051998737 
        99.2    1.0020537  0.043662739 
        99.3   0.99925526   0.02622453 
        99.4   0.99703815  0.038849427 
        99.5    1.0031104  0.035789784 
        99.6    0.9923263  0.022114094 
        99.7    1.0019845  0.030447554 
        99.8   0.99687068   0.03267399 
        99.9   0.99830514  0.038773069 
         100   0.99986572  0.042575001 
       100.1    1.0023438  0.043560008 
       100.2    1.0062808  0.040364507 
       100.3   0.99883628  0.030014854 
       100.4   0.99787236  0.026229056 
       100.5     1.006307  0.042493291 
       100.6   0.99964255   0.03642308 
       100.7    1.0006926  0.040992293 
       100.8    1.0020133   0.03950719 
       100.9    0.9939339  0.030174853 
         101     1.002204  0.025667359 
       101.1    1.0043396  0.032699391 
       101.2   0.99696426  0.037564258 
       101.3    1.0078632  0.036941735 
       101.4   0.99980296  0.043238803 
       101.5   0.99939145  0.050613635 
       101.6    1.0029662  0.040115787 
       101.7    1.0055172  0.027414051 
       101.8    1.0017013  0.043620033 
       101.9    1.0029484  0.050735501 
         102    1.0005295   0.03563899 
       102.1   0.98922317  0.012970819 
       102.2    1.0022139   0.03845148 
       102.3   0.99862145  0.053627808 
       102.4   0.99330465  0.031459659 
       102.5    1.0033739  0.037121224 
       102.6    1.0005015  0.030381818 
       102.7    1.0006178   0.03872608 
       102.8    1.0037794  0.037501855 
       102.9    0.9954224  0.035429135 
         103   0.99692681  0.028068935 
       103.1    1.0026279  0.043770103 
       103.2    1.0003353   0.03422127 
       103.3   0.99671127  0.055448291 
       103.4    0.9956641  0.025357282 
       103.5   0.99916382    0.0347845 
       103.6    1.0035329  0.030625705 
       103.7   0.99834868  0.024171017 
       103.8   0.99822852  0.041165776 
       103.9    1.0051575  0.046384049 
         104   0.99944416  0.041972608 
       104.1   0.99278434  0.032513499 
       104.2    1.0022209  0.031408427 
       104.3    1.0013548  0.034362886 
       104.4   0.99476136  0.033641723 
       104.5    1.0005298  0.033652785 
       104.6    1.0039674  0.057294434 
       104.7   0.99967654  0.038913127 
       104.8   0.99496221  0.019236849 
       104.9    1.0059489  0.036741214 
         105    1.0021581  0.036669241 
       105.1    1.0000156  0.037891513 
       105.2   0.99409612  0.034582373 
       105.3    1.0026704  0.051439067 
       105.4   0.99761351   0.04145736 
       105.5   0.99713086  0.025808544 
       105.6   0.99790834  0.040417588 
       105.7    1.0017378  0.040040212 
       105.8   0.99965274  0.037568869 
       105.9    1.0074943  0.034283174 
         106    1.0007774  0.054135361 
       106.1    1.0013916  0.042757874 
       106.2   0.99527728  0.036063232 
       106.3   0.99912235  0.025882142 
       106.4    1.0054606  0.039514692 
       106.5    1.0040905  0.042228743 
       106.6     1.000715  0.039305391 
       106.7    0.9978115  0.034823213 
       106.8    1.0073729  0.039185224 
       106.9   0.99583783  0.036837752 
         107    1.0021943  0.035461803 
       107.1   0.99906567  0.029366709 
       107.2   0.99939901  0.032946763 
       107.3    1.0038117  0.035044571 
       107.4   0.99655243  0.026436273 
       107.5    1.0020954  0.037618703 
       107.6   0.99805843  0.037020952 
       107.7   0.99807773  0.045424278 
       107.8    1.0026392   0.02700172 
       107.9   0.99430795   0.02130465 
         108   0.99987462  0.029996066 
       108.1    1.0103172  0.039212254 
       108.2    1.0016667  0.037507234 
       108.3   0.99790751  0.045920724 
       108.4    1.0006215  0.042093054 
       108.5    1.0050927  0.032235109 
       108.6   0.99612316  0.028199108 
       108.7   0.99835348  0.028504559 
       108.8    1.0063372  0.029128446 
       108.9    1.0018344   0.02737465 
         109   0.99884367   0.02967664 
       109.1    0.9967225  0.034677944 
       109.2    1.0073514  0.048864938 
       109.3   0.99789731  0.039692093 
       109.4   0.99768759  0.048984027 
       109.5    1.0049191  0.043532407 
       109.6    0.9999478  0.037567306 
       109.7   0.99855971  0.024115677 
       109.8    1.0066057  0.037199929 
       109.9    1.0014788  0.048575192 
         110   0.99241927  0.030683823 
       110.1   0.99931375  0.035091602 
       110.2    1.0026237  0.041582064 
       110.3    1.0084365  0.035056739 
       110.4   0.99707249  0.029489557 
       110.5   0.99525781  0.037746933 
       110.6    1.0021034  0.035625417 
       110.7   0.99662784   0.02729826 
       110.8     1.000284  0.038837084 
       110.9   0.99437184  0.035712655 
         111   0.99781136   0.05055935 
       111.1    1.0019172  0.052028011 
       111.2   0.99721807  0.026030841 
       111.3   0.99582026   0.03832013 
       111.4    1.0027838  0.031728418 
       111.5   0.99639516  0.035181899 
       111.6   0.99809821  0.031355365 
       111.7    1.0055252   0.02707224 
       111.8   0.99792235  0.035971804 
       111.9   0.99878686  0.027421706 
         112   0.99952312  0.039225528 
       112.1    1.0021149  0.053698761 
       112.2   0.99356656  0.043606953 
       112.3    1.0020905  0.036633104 
       112.4   0.99931549  0.034008227 
       112.5   0.99820734  0.035961486 
       112.6    1.0065899  0.035078864 
       112.7    1.0011327  0.048523631 
       112.8    1.0019748  0.035608107 
       112.9   0.99267427  0.041706988 
         113   0.99853241  0.035634179 
       113.1    1.0058807  0.046066209 
       113.2   0.99518296  0.030286087 
       113.3     1.000105  0.038816747 
       113.4    1.0032432  0.049624719 
       113.5    1.0064794  0.040404451 
       113.6    1.0018485  0.045472254 
       113.7    1.0017543    0.0437921 
       113.8   0.99145644  0.033435916 
       113.9   0.99895685  0.031544127 
         114    1.0105126  0.044240131 
       114.1    1.0002095  0.046729503 
       114.2   0.99798459  0.034147144 
       114.3    1.0097714  0.044907793 
       114.4   0.99874726  0.051097957 
       114.5   0.99766977  0.038032127 
       114.6     1.000974  0.035992393 
       114.7    1.0040537  0.038761613 
       114.8   0.99642663  0.034733856 
       114.9    1.0015669  0.045607319 
         115    1.0008687  0.037165906 
       115.1   0.99939609  0.042946856 
       115.2   0.99848135  0.037557423 
       115.3    1.0016571  0.045359496 
       115.4   0.99552554  0.029011963 
       115.5   0.99653263  0.038405931 
       115.6    1.0054376  0.036453578 
       115.7   0.99648633  0.039035073 
       115.8      1.00091  0.045296356 
       115.9    1.0067465  0.043744416 
         116   0.99855347  0.033770724 
       116.1   0.99439491  0.027988089 
       116.2    1.0024213  0.034233439 
       116.3   0.99292272  0.032001515 
       116.4    1.0094212  0.059681918 
       116.5   0.99816793  0.043919794 
       116.6    1.0048722  0.059585611 
       116.7    1.0056803   0.03385661 
       116.8     1.001279  0.025558559 
       116.9   0.99264687  0.033672218 
         117    1.0012294  0.034492744 
       117.1    1.0017734  0.040858743 
       117.2    0.9975626   0.03674376 
       117.3    1.0004005  0.018341046 
       117.4    1.0035244  0.029303495 
       117.5   0.99293508  0.041610115 
       117.6    1.0025987  0.045206335 
       117.7    1.0051393  0.020810296 
       117.8   0.99901639  0.032464834 
       117.9    1.0067947  0.039255897 
         118    0.9993169  0.042883427 
       118.1   0.99790728  0.045931942 
       118.2     1.000653  0.035914609 
       118.3     1.002936   0.04254845 
       118.4   0.99159374  0.029703085 
       118.5   0.99794918  0.031932336 
       118.6   0.99425189  0.031661342 
       118.7    1.0033897  0.034409731 
       118.8    1.0009209  0.046686393 
       118.9    1.0063804   0.04426869 
         119   0.99524192  0.034555268 
       119.1    1.0000288  0.038327651 
       119.2    1.0019087  0.038576661 
       119.3    0.9981701  0.048113502 
       119.4     1.007224  0.056946402 
       119.5    1.0001646  0.028804248 
       119.6   0.99833589  0.027368326 
       119.7   0.99641962  0.034315411 
       119.8   0.99556912  0.023511069 
       119.9    1.0045817  0.044878377 
         120    1.0012721  0.049759062 
       120.1   0.99966361  0.040069919 
       120.2   0.99860182  0.043331897 
       120.3   0.99754536  0.035307525 
       120.4    1.0056873  0.035918424 
       120.5   0.99600053  0.023353471 
       120.6   0.99858127  0.031862228 
       120.7    1.0028352  0.044559479 
       120.8   0.99769838  0.037983205 
       120.9   0.99906651  0.035731657 
         121    1.0081178  0.037564361 
       121.1   0.99664823    0.0214965 
       121.2   0.99975937  0.032006007 
       121.3   0.99889936  0.028886794 
       121.4   0.99907648  0.024080699 
       121.5    1.0039597  0.037538579 
       121.6    1.0016548  0.026977388 
       121.7   0.99772496  0.039053011 
       121.8    1.0061646  0.051100317 
       121.9    1.0052582  0.046303592 
         122   0.99694536  0.043424205 
       122.1    1.0048279  0.043168745 
       122.2    1.0049305  0.045162653 
       122.3    1.0016983  0.035839195 
       122.4   0.99836321  0.032837702 
       122.5    1.0036946  0.042393379 
       122.6   0.99991645  0.033784105 
       122.7    0.9973756  0.027331352 
       122.8   0.99496667  0.027574158 
       122.9    1.0026339  0.024934797 
         123   0.99938395  0.040980279 
       123.1   0.99904303  0.031646061 
       123.2    1.0064753  0.043653902 
       123.3    1.0027399  0.031571912 
       123.4   0.99696748  0.027969437 
       123.5    1.0054626  0.038429633 
       123.6   0.99722047   0.03502744 
       123.7   0.99873217  0.043763588 
       123.8    1.0086208  0.038875853 
       123.9     1.000572  0.051904129 
         124    1.0021261  0.053746293 
       124.1   0.99353488  0.042479691 
       124.2    1.0026109  0.039542112 
       124.3    1.0024436  0.031510201 
       124.4   0.99776249  0.033755443 
       124.5   0.99931342  0.035250264 
       124.6    1.0045078  0.044442505 
       124.7    1.0040978   0.03999831 
       124.8   0.99729769   0.02564747 
       124.9   0.99341731  0.030149414 
         125   0.99932351  0.029794637 
       125.1    1.0048274  0.035652275 
       125.2   0.99855032  0.035259044 
       125.3    0.9949349  0.037485262 
       125.4    1.0042431  0.045082502 
       125.5    1.0044986  0.039585787 
       125.6    1.0052816  0.050106275 
       125.7   0.99348183  0.046265285 
       125.8   0.99812309   0.04082751 
       125.9    1.0034452  0.044725273 
         126    1.0017916  0.040172667 
       126.1   0.99644833  0.041506429 
       126.2    1.0014689  0.045848784 
       126.3    1.0037153  0.044401902 
       126.4   0.99824701  0.037141698 
       126.5   0.99762797  0.042854479 
       126.6    1.0005049  0.032631499 
       126.7    1.0001367  0.032839408 
       126.8   0.99827674  0.035479108 
       126.9   0.99969427  0.041123035 
         127    1.0109116   0.03674488 
       127.1   0.99981359  0.031756289 
       127.2   0.99687969  0.045343737 
       127.3     1.000585   0.04186815 
       127.4    1.0016099  0.034003572 
       127.5    1.0030384  0.042461213 
       127.6    1.0029716  0.048741796 
       127.7   0.99651401   0.04198762 
       127.8    1.0053001  0.039081882 
       127.9     1.005809  0.043575614 
         128   0.99792722  0.045861601 
       128.1   0.99814083  0.040030794 
       128.2    1.0010617  0.038542523 
       128.3   0.99870388  0.037841125 
       128.4     1.004512  0.028878033 
       128.5   0.99624929  0.033386382 
       128.6   0.99368015  0.038349913 
       128.7   0.99837537  0.032694313 
       128.8    1.0028277  0.036757982 
       128.9    1.0012872  0.047204312 
         129    1.0005503  0.042843328 
       129.1    0.9986361  0.026501851 
       129.2    0.9978771  0.032255367 
       129.3    1.0044159   0.05100532 
       129.4   0.99940658  0.044714201 
       129.5   0.99643867  0.030342583 
       129.6    1.0015341  0.033426734 
       129.7    1.0038951  0.039402508 
       129.8   0.99717737  0.041025851 
       129.9   0.99727312  0.030354344 
         130    1.0070349  0.039187442 
       130.1    1.0025491   0.04804505 
       130.2    1.0014914  0.043071806 
       130.3    0.9971407  0.044924289 
       130.4   0.99872918  0.041153448 
       130.5    1.0044993  0.030632796 
       130.6    1.0029514  0.040121041 
       130.7   0.99578514  0.033296264 
       130.8    1.0024769  0.037284928 
       130.9    1.0019516  0.042033949 
         131    1.0059393  0.038148136 
       131.1   0.99623304  0.032321944 
       131.2    1.0036583  0.046991019 
       131.3    1.0011488  0.048900489 
       131.4   0.99575272  0.040260394 
       131.5    1.0045716  0.033015413 
       131.6    1.0043643  0.040809005 
       131.7   0.99597698  0.032062704 
       131.8    1.0002588  0.046944677 
       131.9    1.0030149  0.023837185 
         132    1.0009924  0.027859512 
       132.1    1.0012886  0.031137914 
       132.2    1.0058071  0.037801236 
       132.3   0.99341048  0.033133394 
       132.4    0.9955308  0.037475982 
       132.5    1.0017592  0.037212808 
       132.6   0.99835494  0.045554448 
       132.7    1.0077153  0.037863769 
       132.8    1.0029645  0.023223665 
       132.9   0.99773036 0.0083450694 
         133    1.0033591  0.030058286 
       133.1   0.99985732  0.021918286 
       133.2   0.99999292  0.040036221 
       133.3    1.0059459  0.034660024 
       133.4    1.0038161  0.033211001 
       133.5    0.9978385  0.017143906 
       133.6   0.99381375  0.037578491 
       133.7    1.0033681  0.038205683 
       133.8    1.0039002  0.048631596 
       133.9   0.99986117  0.035715454 
         134   0.99382183  0.028311106 
       134.1   0.99868955  0.032550073 
       134.2    1.0048839  0.040253542 
       134.3    1.0009057  0.034448175 
       134.4   0.99675621  0.032638745 
       134.5    1.0069539  0.046017638 
       134.6    1.0008201   0.05132328 
       134.7   0.99448345  0.035010515 
       134.8    1.0022978  0.034408189 
       134.9    1.0039585   0.02369149 
         135   0.99580447   0.03476357 
       135.1    0.9958807  0.030577443 
       135.2    1.0066752  0.042215656 
       135.3   0.99820229  0.022880199 
       135.4   0.99643386  0.021454211 
       135.5    1.0072114  0.029861815 
       135.6   0.99900919  0.030072262 
       135.7   0.99507075    0.0293901 
       135.8   0.99572849  0.027340766 
       135.9     1.001299  0.042976897 
         136    1.0024598  0.041691681 
       136.1   0.99647585  0.036615357 
       136.2    1.0021519  0.029790704 
       136.3    1.0013482  0.046104594 
       136.4   0.99629406  0.029030321 
       136.5    0.9939482  0.033360765 
       136.6    1.0044683  0.039794449 
       136.7    1.0007882  0.040088142 
       136.8    0.9949066   0.03034424 
       136.9    1.0011045  0.034564459 
         137    1.0018124  0.034463323 
       137.1   0.99454183  0.040914983 
       137.2    1.0005438  0.043751123 
       137.3   0.99964287    0.0395078 
       137.4    1.0053733   0.03679572 
       137.5    1.0032162  0.049079794 
       137.6   0.99918244  0.018504163 
       137.7   0.99931022  0.031617815 
       137.8    1.0047722  0.038665343 
       137.9    1.0005323  0.042239657 
         138    0.9992168  0.034157181 
       138.1   0.99847197  0.034717883 
       138.2   0.99547303  0.023653679 
       138.3    1.0024098  0.027517488 
       138.4   0.99725809  0.020642324 
       138.5    1.0043453  0.042451612 
       138.6    1.0001792  0.048799326 
       138.7    0.9927935  0.035998677 
       138.8    1.0035716  0.046343881 
       138.9    1.0018518  0.048186533 
         139    1.0002152  0.042990885 
       139.1   0.99955191  0.042357632 
       139.2    1.0084224  0.033650952 
       139.3    1.0023486  0.036841561 
       139.4    1.0016073  0.042039389 
       139.5   0.99694737  0.028995383 
       139.6   0.99665934  0.036282248 
       139.7   0.99799263  0.031816851 
       139.8    1.0038743  0.026702565 
       139.9   0.99845991    0.0426661 
         140   0.99719095  0.031976391 
       140.1    1.0049435  0.047117906 
       140.2   0.99326684  0.040841598 
       140.3    1.0001104  0.044750654 
       140.4   0.99932129  0.049892761 
       140.5    1.0030535  0.045608344 
       140.6   0.99847619  0.042942729 
       140.7   0.99928681  0.046918545 
       140.8   0.99956335  0.047343716 
       140.9   0.99606108  0.039831517 
         141    1.0022268   0.05828947 
       141.1    1.0007056  0.049099335 
       141.2   0.99974776  0.033588688 
       141.3    1.0015074  0.040321676 
       141.4   0.99651293  0.044186239 
       141.5    1.0117098  0.028173002 
       141.6    1.0010681  0.042468694 
       141.7    1.0019199  0.044012274 
       141.8   0.99642537   0.03139556 
       141.9    1.0071162   0.03514453 
         142     0.999084  0.033946435 
       142.1   0.99884946  0.022586773 
       142.2    1.0045042  0.030144085 
       142.3   0.99476767   0.03430264 
       142.4   0.99854118  0.032314603 
       142.5    1.0038919  0.035154919 
       142.6    1.0026365   0.04065118 
       142.7   0.99490579  0.026138817 
       142.8    1.0043039  0.052195444 
       142.9    0.9974047  0.047067436 
         143    1.0056914  0.056073957 
       143.1     1.003348  0.044618504 
       143.2   0.99758899   0.03207341 
       143.3    0.9937158  0.043886098 
       143.4    1.0037377  0.042971966 
       143.5   0.99426499  0.033574028 
       143.6    1.0005723  0.030270287 
       143.7     1.005559  0.038669207 
       143.8   0.99988359  0.038087742 
       143.9   0.99437689  0.021590679 
         144   0.99599325  0.046901938 
       144.1    1.0044975  0.040519226 
       144.2    1.0072347  0.052849321 
       144.3   0.99274365  0.031800513 
       144.4    1.0019366  0.027611494 
       144.5    1.0006015   0.04296809 
       144.6   0.99846309  0.036967716 
       144.7   0.99274862  0.038192843 
       144.8    1.0024735  0.038947967 
       144.9   0.99762203  0.060761758 
         145   0.99908588   0.05276343 
       145.1    1.0029932  0.040442137 
       145.2   0.99692816  0.032576397 
       145.3    1.0011701  0.044500629 
       145.4    1.0045218  0.038353782 
       145.5    1.0046243  0.033899923 
       145.6   0.99535896   0.04089205 
       145.7   0.99993838  0.036498711 
       145.8    1.0066325  0.042446859 
       145.9     1.003027  0.043143062 
         146   0.99964707  0.034016295 
       146.1   0.99819822  0.039973584 
       146.2   0.99987152  0.028509716 
       146.3    1.0016609  0.040787195 
       146.4   0.99618826  0.047734694 
       146.5   0.99802045  0.037650316 
       146.6    1.0024064  0.036502593 
       146.7    1.0049336  0.025276852 
       146.8    1.0003896  0.045676232 
       146.9   0.99921907   0.03976402 
         147   0.99902978  0.026312049 
       147.1    1.0035095  0.043542004 
       147.2    1.0039105  0.039085686 
       147.3   0.99579985  0.054658121 
       147.4    0.9972348  0.047979973 
       147.5    1.0016988  0.036070382 
       147.6   0.99303993  0.038312745 
       147.7    1.0026376   0.04475949 
       147.8   0.99969433   0.03168658 
       147.9    1.0000533  0.031348166 
         148    1.0029303  0.042955386 
       148.1   0.99893193  0.037674676 
       148.2   0.99373912  0.027438122 
       148.3      1.00345  0.038297313 
       148.4    1.0033942   0.04484629 
       148.5   0.99773182  0.044509001 
       148.6    1.0027571  0.033439313 
       148.7    1.0056867  0.032769686 
       148.8   0.99700366   0.03876219 
       148.9   0.99662045  0.033419066 
         149    1.0054452  0.042532334 
       149.1   0.99731562  0.033740785 
       149.2   0.99721402  0.027692369 
       149.3    1.0018468  0.040351603 
       149.4     1.002754  0.044386038 
       149.5    0.9996951   0.04418486 
       149.6     1.003186  0.047747504 
       149.7   0.99394327  0.049361732 
       149.8    1.0006932  0.045365777 
       149.9   0.99097006  0.027028065 
         150    1.0009117  0.038293969 
       150.1   0.99994099  0.032559754 
       150.2   0.99759158  0.032969768 
       150.3     1.007078  0.036755848 
       150.4   0.99871431   0.03613272 
       150.5   0.99977841  0.025161465 
       150.6    1.0041612  0.030260332 
       150.7   0.99421354  0.029250692 
       150.8    1.0003693   0.04498194 
       150.9   0.99961887  0.040853606 
         151   0.99595196  0.040746029 
       151.1    1.0007251  0.048218418 
       151.2    1.0080601  0.034900375 
       151.3     1.001059  0.047726281 
       151.4   0.99203153  0.033987467 
       151.5     1.004446  0.038316898 
       151.6     1.000301  0.040459981 
       151.7   0.99902745  0.050504812 
       151.8   0.99920363  0.042945455 
       151.9    1.0021328  0.027921652 
         152    1.0090059  0.031070249 
       152.1   0.99782705  0.035579166 
       152.2   0.99991416  0.049724746 
       152.3    1.0015929  0.048676901 
       152.4   0.99667916  0.042029266 
       152.5    1.0027487  0.043447289 
       152.6    1.0032592  0.031949792 
       152.7   0.99587409   0.03239474 
       152.8   0.99916886   0.03829168 
       152.9    1.0011338  0.041196846 
         153    1.0000793  0.033040786 
       153.1    0.9962225  0.043564087 
       153.2   0.99500467  0.040581338 
       153.3   0.99917131  0.039732568 
       153.4    1.0011365  0.027926551 
       153.5    0.9921206  0.023436855 
       153.6    1.0018814  0.042876275 
       153.7    1.0036244  0.038978383 
       153.8   0.99596632  0.045554736 
       153.9    1.0037247  0.028846133 
         154    1.0009875  0.034352931 
       154.1   0.99790123  0.030585529 
       154.2   0.99755702  0.023674043 
       154.3    1.0022001   0.02203236 
       154.4   0.99746167  0.035838197 
       154.5   0.99387346  0.023347732 
       154.6   0.99730771  0.016288391 
       154.7    1.0015161  0.032219363 
       154.8    1.0042395  0.048865881 
       154.9    0.9971992  0.028893505 
         155   0.99601638  0.034699061 
       155.1    1.0030327  0.038124935 
       155.2    1.0018059  0.029813392 
       155.3      0.99671  0.029656087 
       155.4    1.0053711  0.029717913 
       155.5   0.99692938  0.046524629 
       155.6    1.0099194  0.038157721 
       155.7    1.0004897  0.045591234 
       155.8    0.9926764  0.042359239 
       155.9      1.00464  0.026419506 
         156    1.0049218  0.026790767 
       156.1   0.99703793  0.036369754 
       156.2   0.99504621  0.026869199 
       156.3    1.0038581   0.04075077 
       156.4     1.003007  0.026840799 
       156.5   0.99565364  0.021272531 
       156.6   0.99719068  0.028775217 
       156.7    1.0063394  0.023692925 
       156.8    1.0001852  0.037991084 
       156.9   0.99843256  0.035264359 
         157    1.0007714  0.033032997 
       157.1    1.0010284  0.039811152 
       157.2   0.99903144  0.036405165 
       157.3   0.99854001  0.041910856 
       157.4   0.99801418  0.036181676 
       157.5    1.0064348  0.038403547 
       157.6    1.0037088  0.036293863 
       157.7     0.996912  0.022668157 
       157.8    0.9995465  0.025764781 
       157.9    1.0010982  0.032193035 
         158    1.0011112  0.036727375 
       158.1     1.000253  0.027017438 
       158.2   0.99601644  0.046338556 
       158.3   0.99474353  0.030653724 
       158.4    1.0021675  0.027049919 
       158.5    1.0046469  0.045683127 
       158.6   0.99739952  0.035195202 
       158.7   0.99718952  0.034992745 
       158.8    1.0082366  0.031560693 
       158.9    1.0019267  0.045362869 
         159    1.0013064  0.031471172 
       159.1   0.99550915  0.033045824 
       159.2    1.0029213  0.041926317 
       159.3   0.99431343  0.017636196 
       159.4   0.99494876  0.019152992 
       159.5    0.9999716  0.018262495 
       159.6    1.0009827  0.030954034 
       159.7   0.99923987  0.030385426 
       159.8   0.99931263   0.02208177 
       159.9   0.99881188  0.024524086 
         160    1.0007308  0.031805462 
       160.1    1.0011344  0.021866453 
       160.2    1.0001831  0.022616955 
       160.3   0.99363981  0.020564675 
       160.4     1.003977  0.032014458 
       160.5    1.0043302  0.033079344 
       160.6   0.99454187  0.033297529 
       160.7    1.0023418  0.043529358 
       160.8    1.0020321  0.040527451 
       160.9   0.99996478  0.034617421 
         161    1.0020934  0.030324955 
       161.1    1.0045359  0.039674514 
       161.2   0.99560406  0.032094808 
       161.3   0.99797268  0.034837725 
       161.4   0.99683532   0.04607787 
       161.5    1.0007218  0.035108475 
       161.6    1.0008062  0.034722994 
       161.7   0.99675403   0.04927933 
       161.8    0.9976034  0.054091117 
       161.9    1.0076506  0.033591264 
         162    1.0015737  0.037810713 
       162.1   0.99967282  0.034406682 
       162.2    1.0031904  0.031594048 
       162.3   0.99594619  0.013329522 
       162.4   0.99535567  0.024284436 
       162.5   0.99977805  0.047160556 
       162.6    1.0058274  0.042139387 
       162.7   0.99727104   0.04127402 
       162.8   0.99965784  0.033034069 
       162.9    1.0014351  0.039264588 
         163    1.0047119  0.028504444 
       163.1   0.99625853  0.014788236 
       163.2   0.99910792  0.023380806 
       163.3    1.0053924  0.033901568 
       163.4   0.99938645  0.034583257 
       163.5   0.99876235  0.025457928 
       163.6   0.99906904  0.026566558 
       163.7    1.0027866  0.045045364 
       163.8   0.99972497  0.044112884 
       163.9   0.99426257  0.036412592 
         164   0.99508682  0.041077751 
       164.1    1.0009354  0.037247335 
       164.2   0.99960548  0.029550613 
       164.3    1.0012462  0.033356917 
       164.4   0.99622568  0.029045131 
       164.5    0.9972462  0.034194734 
       164.6    1.0041542  0.034710463 
       164.7     1.007314  0.045674598 
       164.8   0.99825937  0.025082946 
       164.9    1.0032082  0.032500087 
         165    1.0011302  0.032498632 
       165.1   0.99499599  0.046649059 
       165.2    1.0019807  0.030059708 
       165.3   0.99709465  0.028596895 
       165.4     1.000317  0.048575254 
       165.5    1.0026563  0.024966332 
       165.6    1.0009159   0.02862791 
       165.7   0.99741457  0.031946158 
       165.8   0.99995873   0.03235352 
       165.9   0.99833009  0.038616366 
         166     0.997997  0.028102115 
       166.1    1.0031734  0.032669145 
       166.2    0.9961786  0.026127494 
       166.3   0.99744025  0.031066025 
       166.4    1.0026054  0.024656221 
       166.5    1.0025121  0.021864817 
       166.6   0.99817212  0.016232604 
       166.7    1.0042898   0.03274436 
       166.8    1.0019523  0.034724798 
       166.9    1.0048849  0.028258363 
         167    1.0004987  0.021689834 
       167.1   0.99376138   0.03255398 
       167.2    1.0003722  0.032474104 
       167.3    1.0051575  0.028890197 
       167.4   0.99857499  0.016652677 
       167.5    1.0005609   0.03135633 
       167.6    1.0047858  0.035812015 
       167.7   0.99728471  0.034634516 
       167.8     1.001037  0.030130336 
       167.9     1.007124  0.037937292 
         168   0.99962022  0.030271757 
       168.1   0.99474709  0.029866605 
       168.2    1.0001459  0.035114019 
       168.3    1.0038482  0.032668513 
       168.4    1.0012377  0.019875329 
       168.5   0.99652807  0.035167488 
       168.6    1.0026935  0.028949876 
       168.7   0.99356859  0.028895762 
       168.8    1.0001023  0.030247029 
       168.9    1.0027181   0.02311058 
         169   0.99259337  0.034648044 
       169.1   0.99609817  0.027469617 
       169.2    1.0061484  0.036174918 
       169.3   0.99741759  0.029551845 
       169.4   0.99695216  0.025473131 
       169.5   0.99624461  0.039606691 
       169.6    1.0052974  0.035974562 
       169.7    1.0067849  0.040874848 
       169.8   0.99947834  0.038470788 
       169.9    0.9991876  0.034319524 
         170   0.99965879  0.039501814 
       170.1    1.0011217  0.042834279 
       170.2    1.0012667  0.033242736 
       170.3    1.0025686  0.036059897 
       170.4   0.99438376  0.026517186 
       170.5    1.0023545  0.035233104 
       170.6    1.0034229  0.036891411 
       170.7   0.99627288  0.022230521 
       170.8     1.005294  0.038561821 
       170.9    1.0023086  0.028409282 
         171     1.000797  0.029082963 
       171.1   0.99748738  0.038545117 
       171.2   0.99906293  0.036722446 
       171.3     1.007167   0.04091088 
       171.4   0.99829456  0.035331511 
       171.5   0.99696173  0.043140114 
       171.6    1.0012384  0.051540988 
       171.7     1.001374   0.04360596 
       171.8   0.99858434  0.036894857 
       171.9    1.0042784  0.045521255 
         172   0.99728123  0.033382247 
       172.1   0.99849038  0.034259459 
       172.2    1.0026955  0.033302401 
       172.3    1.0045354  0.038635146 
       172.4    1.0008796  0.041818155 
       172.5   0.99684998   0.03894717 
       172.6    1.0018111  0.030175802 
       172.7    1.0040135  0.047212332 
       172.8   0.99658016  0.045230272 
       172.9    1.0001856  0.036758379 
         173    1.0017482  0.039915343 
       173.1    1.0008021  0.048793425 
       173.2   0.99910083  0.051747193 
       173.3   0.99974999  0.042755146 
       173.4    1.0034744  0.031321176 
       173.5    1.0001476  0.047705246 
       173.6   0.99415348  0.053587389 
       173.7    1.0013298  0.033914023 
       173.8    1.0010456  0.046619398 
       173.9    1.0067057  0.033277166 
         174   0.99683759  0.042199771 
       174.1    1.0009167  0.019948972 
       174.2    1.0033746  0.039348454 
       174.3    0.9977538  0.036298919 
       174.4   0.99923861  0.052016561 
       174.5   0.99719976  0.035040371 
       174.6    1.0077257  0.035153374 
       174.7   0.99633126  0.052449777 
       174.8   0.99562505  0.038153579 
       174.9    1.0040686  0.056123416 
         175    1.0034258  0.042060304 
       175.1   0.99616009  0.041505652 
       175.2     1.004514  0.054539302 
       175.3    1.0000779  0.040407724 
       175.4   0.99710595  0.033700981 
       175.5    1.0044401  0.037194457 
       175.6    1.0019973  0.040243379 
       175.7    1.0010797  0.049290008 
       175.8   0.99054881  0.049155636 
       175.9    1.0037251  0.050334724 
         176   0.99642512  0.047417017 
       176.1    1.0032054  0.056570916 
       176.2   0.99972129  0.035363865 
       176.3   0.99719053   0.04298487 
       176.4   0.99980012  0.036272097 
       176.5    1.0078594  0.049044457 
       176.6   0.99717274  0.034429529 
       176.7   0.99794612  0.050222561 
       176.8     1.007431  0.032390536 
       176.9   0.99962726  0.033220818 
         177    0.9947403  0.034799431 
       177.1   0.99888731  0.050934134 
       177.2   0.99909916   0.05798855 
       177.3    1.0009654  0.044809262 
       177.4   0.99900533   0.04504976 
       177.5   0.99740109  0.034479355 
       177.6   0.99920778  0.040130645 
       177.7   0.99881127  0.052442384 
       177.8   0.99883204  0.033803862 
       177.9   0.99612979  0.039463683 
         178    1.0083268  0.053302894 
       178.1    1.0017495  0.044352232 
       178.2   0.99640727  0.052961694 
       178.3     1.003078  0.057765079 
       178.4   0.99687677   0.04355451 
       178.5     1.000279   0.03742373 
       178.6    1.0034949  0.042933552 
       178.7   0.99618912  0.040934037 
       178.8    1.0050411  0.051115362 
       178.9    1.0028971  0.037968347 
         179   0.99624707  0.031939832 
       179.1    0.9976152  0.030602786 
       179.2    1.0016985  0.044678287 
       179.3    1.0016326  0.037254824 
       179.4   0.99989292  0.034414603 
       179.5   0.99097035  0.022245969 
       179.6     1.003062  0.026476221 
       179.7    1.0017201  0.047287736 
       179.8   0.99309489  0.033442353 
       179.9    1.0052824   0.04674593 
         180   0.99978864  0.029958586 
       180.1    1.0036553  0.023918992 
       180.2    1.0065034  0.036915435 
       180.3   0.99700632  0.030909037 
       180.4   0.99511689  0.037400177 
       180.5   0.99853739  0.052724049 
       180.6     1.004802  0.038869061 
       180.7   0.99991358  0.048191301 
       180.8    0.9963862  0.027733853 
       180.9    1.0027174  0.044990634 
         181    1.0017474   0.03412822 
       181.1    0.9985881   0.02855851 
       181.2   0.99426392  0.033637271 
       181.3    0.9979835  0.037628232 
       181.4    1.0015006  0.048966924 
       181.5    1.0042623  0.043680296 
       181.6   0.99740268  0.046741986 
       181.7    0.9940174  0.043078722 
       181.8    1.0007923  0.050302171 
       181.9    1.0024479  0.047619902 
         182   0.99429612  0.039823295 
       182.1   0.99932497  0.041933156 
       182.2    1.0101403  0.056718528 
       182.3   0.99902144  0.050330799 
       182.4   0.99793475  0.048272751 
       182.5     1.002815  0.046418445 
       182.6   0.99977001   0.06028579 
       182.7   0.99927814  0.044626335 
       182.8    1.0035748  0.034950485 
       182.9     0.996404  0.034322054 
         183    1.0028075  0.048594574 
       183.1   0.99709094  0.038013098 
       183.2   0.99776904  0.040397778 
       183.3    1.0027155  0.028062188 
       183.4   0.99775762  0.044757446 
       183.5   0.99656756  0.039882923 
       183.6    1.0021622  0.027827502 
       183.7    1.0009154   0.03579261 
       183.8   0.99814527   0.04032358 
       183.9    1.0031318  0.029907902 
         184   0.99175348  0.037916705 
       184.1     1.001231  0.036371089 
       184.2    1.0036721  0.039883763 
       184.3   0.99895863  0.033184723 
       184.4    0.9982265  0.040070075 
       184.5    1.0039248  0.029396232 
       184.6   0.99319264  0.031056075 
       184.7     1.000163  0.035068199 
       184.8    1.0016864  0.038538001 
       184.9    1.0003294   0.04791181 
         185   0.99429839  0.028209741 
       185.1    1.0066979  0.039562591 
       185.2   0.99782832  0.038964411 
       185.3    1.0033419  0.042164619 
       185.4    1.0018635  0.043633622 
       185.5   0.99351884  0.024298803 
       185.6    0.9996138   0.03339351 
       185.7    1.0078482  0.044621105 
       185.8   0.99775183  0.044260205 
       185.9    1.0033005  0.035459884 
         186    1.0031327  0.043263485 
       186.1    1.0010151  0.038128791 
       186.2   0.99893284  0.037802211 
       186.3   0.99465338  0.030383555 
       186.4   0.99975952  0.035188339 
       186.5    1.0012818   0.03808295 
       186.6    1.0019215  0.048529797 
       186.7    0.9946007  0.029497256 
       186.8    1.0052969  0.044573361 
       186.9   0.99424684  0.042597738 
         187   0.99797699  0.046883222 
       187.1    1.0013132  0.028411381 
       187.2    1.0045574  0.038612435 
       187.3   0.99231262  0.042023339 
       187.4     0.998658  0.035611644 
       187.5      1.01014  0.040441119 
       187.6   0.99853387  0.034392605 
       187.7   0.99830379  0.033128696 
       187.8   0.99972939  0.031212383 
       187.9    1.0012632  0.032610336 
         188    1.0015552  0.040816104 
       188.1   0.99160029  0.030023571 
       188.2    1.0012353  0.033964924 
       188.3    1.0013027   0.03753495 
       188.4    1.0055149   0.03735358 
       188.5   0.99179313  0.031461365 
       188.6   0.99815508  0.037284436 
       188.7    1.0077682  0.035819725 
       188.8    1.0016049  0.034919297 
       188.9   0.99452486   0.03304386 
         189    1.0006157  0.047709737 
       189.1    1.0028471   0.05104841 
       189.2   0.99633842  0.037235691 
       189.3   0.99422046  0.032213361 
       189.4    1.0042138  0.027332578 
       189.5   0.99696625  0.033408272 
       189.6   0.99653561  0.046542766 
       189.7    1.0049467  0.036022684 
       189.8    1.0044772  0.036563412 
       189.9    1.0021244   0.03337055 
         190   0.99715147   0.03606952 
       190.1   0.99882391  0.034231367 
       190.2   0.99708259  0.031846482 
       190.3    1.0009338   0.02615704 
       190.4    1.0047556  0.041697393 
       190.5    1.0050265  0.036619009 
       190.6   0.99711922  0.041755858 
       190.7    1.0006329  0.017186691 
       190.8    1.0029808  0.046849699 
       190.9   0.99789778  0.042416063 
         191    1.0026864  0.045286044 
       191.1    1.0022989  0.025074232 
       191.2   0.99628272  0.026331273 
       191.3    1.0053894  0.033557398 
       191.4    1.0044971  0.042098818 
       191.5   0.99290351  0.045803442 
       191.6    1.0022499  0.043229433 
       191.7     1.002311  0.043518868 
       191.8   0.99650058  0.036049137 
       191.9   0.99620381  0.033589186 
         192    1.0039831  0.042077176 
       192.1   0.99800892   0.02658866 
       192.2    1.0078593  0.034110542 
       192.3   0.99857761  0.038795553 
       192.4   0.99978887  0.030760886 
       192.5    1.0019565  0.051314757 
       192.6     1.001844  0.037088514 
       192.7   0.99955718  0.036851472 
       192.8     1.001712  0.047266218 
       192.9   0.99965036  0.034464622 
         193   0.99664304  0.039696616 
       193.1    1.0045592  0.047624749 
       193.2   0.99785706  0.040828964 
       193.3    0.9957868  0.059008118 
       193.4    1.0040228  0.043240001 
       193.5    1.0009362  0.038649946 
       193.6   0.99832954  0.035319273 
       193.7    1.0020583  0.042133738 
       193.8    1.0038959  0.035533561 
       193.9    1.0003493  0.041529723 
         194   0.99953204  0.019263647 
       194.1    1.0063055  0.042384932 
       194.2   0.99508257  0.056488472 
       194.3    0.9968682  0.036047696 
       194.4    1.0032929  0.024755055 
       194.5     1.000656  0.038791652 
       194.6    0.9958465  0.036517743 
       194.7   0.99825057  0.035446456 
       194.8    1.0100856  0.049822658 
       194.9     1.000299  0.044044815 
         195   0.99746672  0.028392516 
       195.1    1.0035979  0.041513273 
       195.2    1.0033088  0.038677085 
       195.3    1.0030518  0.035487703 
       195.4   0.99527873  0.029204621 
       195.5   0.99641709  0.024667212 
       195.6    1.0017617  0.050254434 
       195.7     1.006433   0.04640685 
       195.8   0.99937886  0.051279675 
       195.9   0.99475876  0.033788535 
         196    1.0029772  0.043351976 
       196.1    1.0009708  0.031953362 
       196.2    1.0001485  0.030855996 
       196.3   0.99703595  0.053001363 
       196.4    1.0038746  0.033422888 
       196.5   0.99747987  0.037009211 
       196.6   0.99539026   0.02746152 
       196.7    1.0009585  0.026225723 
       196.8    1.0031351  0.027088951 
       196.9   0.99946259  0.018284518 
         197    1.0100447  0.025165174 
       197.1    1.0001845  0.032568484 
       197.2   0.99497691  0.043186771 
       197.3    1.0012331  0.037702546 
       197.4    1.0016584  0.040642655 
       197.5   0.99551323  0.041488827 
       197.6    1.0026745  0.041193459 
       197.7   0.99913476  0.037293215 
       197.8   0.99853589   0.02806091 
       197.9    1.0073279  0.029861553 
         198    1.0000789  0.039436955 
       198.1    1.0015006  0.035349497 
       198.2    1.0119272  0.040812617 
       198.3    0.9967106  0.043046451 
       198.4    1.0042581  0.032979075 
       198.5    1.0028263  0.041141482 
       198.6    1.0042687  0.044301751 
       198.7   0.99944994  0.030758627 
       198.8   0.99869059  0.031823308 
       198.9    1.0093029  0.037590216 
         199    1.0014466   0.04476332 
       199.1    1.0046302  0.031633211 
       199.2   0.99707588  0.034213736 
       199.3   0.99515923  0.036640309 
       199.4    1.0019424   0.04161804 
       199.5    1.0047307  0.025591695 
       199.6    0.9994274  0.033300139 
       199.7   0.99074965  0.033388635 
       199.8    1.0006818  0.054841061 
       199.9    1.0036439  0.036512268 
         200   0.99658753   0.02450292 
       200.1   0.99971768  0.029608338 
       200.2    1.0005548  0.039700267 
       200.3    1.0005791  0.024404799 
       200.4    1.0034227  0.035232468 
       200.5   0.99983154  0.038793073 
       200.6   0.99932321  0.027873683 
       200.7    1.0016521  0.032110304 
       200.8   0.99668696  0.034660334 
       200.9    1.0055256   0.05024291 
         201   0.99955574  0.028653596 
       201.1    1.0009315  0.036905505 
       201.2   0.99832719  0.029075377 
       201.3    1.0045636  0.035346468 
       201.4   0.99978662  0.026586741 
       201.5   0.99819677  0.022571076 
       201.6    0.9974473  0.022910516 
       201.7    1.0014304   0.01128788 
       201.8    1.0019632  0.034430344 
       201.9   0.99589836  0.027103238 
         202   0.99948103  0.033041435 
       202.1    1.0051014  0.021934405 
       202.2    1.0012745  0.025190015 
       202.3    1.0000966  0.042746591 
       202.4    1.0074799  0.031903502 
       202.5   0.99434194  0.023241515 
       202.6   0.99876455  0.027501491 
       202.7   0.99984034  0.043548135 
       202.8    1.0017983  0.040153637 
       202.9   0.99927268  0.035139668 
         203    1.0037907  0.043525557 
       203.1   0.99372018  0.043838322 
       203.2   0.99878912  0.036078787 
       203.3    1.0010035  0.040095957 
       203.4    1.0004581  0.042266988 
       203.5   0.99393152  0.033941183 
       203.6    1.0064234  0.057361588 
       203.7    1.0020662  0.046370075 
       203.8   0.99813249  0.043710664 
       203.9   0.99579574  0.041180404 
         204     1.004423   0.02659187 
       204.1   0.99772056  0.022152874 
       204.2    0.9988301  0.033318978 
       204.3    1.0014668  0.042279397 
       204.4     1.004793  0.033195023 
       204.5    1.0031032  0.042124498 
       204.6   0.99724167  0.041339664 
       204.7    1.0058492   0.04508382 
       204.8    1.0017214  0.034581505 
       204.9    1.0019752  0.033805101 
         205   0.99058764  0.038307165 
Loop time of 1292.98 on 8 procs for 205000 steps with 45508 atoms

Performance: 13698.638 tau/day, 158.549 timesteps/s
98.9% CPU use with 8 MPI tasks x no OpenMP threads

MPI task timing breakdown:
Section |  min time  |  avg time  |  max time  |%varavg| %total
---------------------------------------------------------------
Pair    | 28.407     | 554.32     | 1098.8     |2169.9 | 42.87
Neigh   | 4.4854     | 50.092     | 96.675     | 623.7 |  3.87
Comm    | 38.591     | 633.42     | 1208       |2219.6 | 48.99
Output  | 24.645     | 24.661     | 24.671     |   0.2 |  1.91
Modify  | 12.119     | 18.456     | 24.429     | 135.6 |  1.43
Other   |            | 12.02      |            |       |  0.93

Nlocal:    5688.5 ave 10120 max 1173 min
Histogram: 4 0 0 0 0 0 0 0 0 4
Nghost:    6171.62 ave 9312 max 3096 min
Histogram: 4 0 0 0 0 0 0 0 0 4
Neighs:    243779 ave 476587 max 12858 min
Histogram: 4 0 0 0 0 0 0 0 0 4

Total # of neighbors = 1950229
Ave neighs/atom = 42.8546
Neighbor list builds = 6791
Dangerous builds = 0
Total wall time: 0:21:33
