LAMMPS (18 Jun 2019)
Reading data file ...
  orthogonal box = (0 0 0) to (80 40 40)
  4 by 1 by 2 MPI processor grid
  reading atoms ...
  42592 atoms
  reading velocities ...
  42592 velocities
  read_data CPU = 0.139555 secs
Neighbor list info ...
  update every 1 steps, delay 10 steps, check yes
  max neighbors/atom: 2000, page size: 100000
  master list distance cutoff = 3.3
  ghost atom cutoff = 3.3
  binsize = 1.65, bins = 49 25 25
  1 neighbor lists, perpetual/occasional/extra = 1 0 0
  (1) pair lj/cut, perpetual
      attributes: half, newton on
      pair build: half/bin/atomonly/newton
      stencil: half/bin/3d/newton
      bin: standard
Setting up Verlet run ...
  Unit style    : lj
  Current step  : 0
  Time step     : 0.001
Per MPI rank memory allocation (min/avg/max) = 1.512 | 4.423 | 7.324 Mbytes
Time Temp Press 
           0   0.33304438   -2.3932238 
           1    1.0018232  0.085017046 
           2    1.0044615   0.10117432 
           3    0.9954543  0.071959505 
           4    1.0078139    0.0917066 
           5    1.0034105  0.093254222 
           6    1.0003469  0.065734611 
           7   0.99818647  0.069895676 
           8    1.0046081  0.071372976 
           9   0.99946323  0.041641056 
          10    1.0052239  0.027004467 
          11   0.99495735  0.028616048 
          12   0.99229005 -0.0010377501 
          13   0.99867693 -0.0040465959 
          14   0.99196702 0.0060353484 
          15   0.99691097 -0.011631972 
          16   0.99994086 -0.0052805094 
          17    1.0021421 -0.021452884 
          18    1.0048881 -0.012572326 
          19   0.99066063 -0.038100421 
          20    1.0044134 -0.030869069 
          21    0.9973971  -0.01780717 
          22    1.0014421 -0.021286029 
          23    1.0011867 -0.025084143 
          24    1.0052057 -0.013774471 
          25    1.0011296 -0.027927909 
          26    1.0001766 -0.022582035 
          27    1.0012742 -0.024948367 
          28     1.001046 -0.022929816 
          29   0.99401272 -0.0090110307 
          30   0.99869685 -0.015125568 
          31   0.99539629 -0.014466819 
          32     1.000002 -0.0097534118 
          33    1.0066229  0.005271665 
          34   0.99794457 -0.012077675 
          35    1.0076986  -0.01207909 
          36    1.0052987 0.0025998879 
          37    0.9987892 -0.0036240548 
          38    1.0044506 0.0062493705 
          39    1.0011136 -0.0052772051 
          40    1.0007145  0.016870411 
          41    1.0064018 0.0058237256 
          42   0.99270072  0.004031943 
          43     1.002414  0.014611348 
          44    1.0054177  0.013741157 
          45   0.99775688  0.026674626 
          46    1.0042342  0.047012281 
          47   0.99642352  0.038621116 
          48    1.0014291  0.034748449 
          49   0.99794546  0.036665929 
          50   0.99976638  0.033969024 
          51   0.99748004  0.035667303 
          52   0.99782304  0.064395951 
          53   0.99920337  0.040682239 
          54    1.0058245   0.05951573 
          55    1.0033462  0.050288487 
          56   0.99793216  0.053317052 
          57   0.99812322   0.04293247 
          58    1.0057253  0.047625391 
          59     1.001843  0.036925361 
          60   0.99901371  0.035336883 
          61   0.99674034  0.029268933 
          62    1.0053246  0.038340664 
          63   0.99573724  0.031772132 
          64    1.0024777  0.032896942 
          65   0.99816616  0.013788658 
          66   0.99406224  0.014388464 
          67    1.0001049  0.016998794 
