Position Data

864 atoms
1 atom types

0.0 20.51971136012036 xlo xhi
0.0 10.25985568006018 ylo yhi
0.0 10.25985568006018 zlo zhi

Atoms

1 1 0.0 0.0 0.0
2 1 0.8549879733383484 0.8549879733383484 0.0
3 1 0.8549879733383484 0.0 0.8549879733383484
4 1 0.0 0.8549879733383484 0.8549879733383484
5 1 0.0 0.0 1.7099759466766968
6 1 0.8549879733383484 0.8549879733383484 1.7099759466766968
7 1 0.8549879733383484 0.0 2.564963920015045
8 1 0.0 0.8549879733383484 2.564963920015045
9 1 0.0 0.0 3.4199518933533937
10 1 0.8549879733383484 0.8549879733383484 3.4199518933533937
11 1 0.8549879733383484 0.0 4.274939866691742
12 1 0.0 0.8549879733383484 4.274939866691742
13 1 0.0 0.0 5.12992784003009
14 1 0.8549879733383484 0.8549879733383484 5.12992784003009
15 1 0.8549879733383484 0.0 5.984915813368438
16 1 0.0 0.8549879733383484 5.984915813368438
17 1 0.0 0.0 6.839903786706787
18 1 0.8549879733383484 0.8549879733383484 6.839903786706787
19 1 0.8549879733383484 0.0 7.694891760045135
20 1 0.0 0.8549879733383484 7.694891760045135
21 1 0.0 0.0 8.549879733383484
22 1 0.8549879733383484 0.8549879733383484 8.549879733383484
23 1 0.8549879733383484 0.0 9.404867706721832
24 1 0.0 0.8549879733383484 9.404867706721832
25 1 0.0 1.7099759466766968 0.0
26 1 0.8549879733383484 2.564963920015045 0.0
27 1 0.8549879733383484 1.7099759466766968 0.8549879733383484
28 1 0.0 2.564963920015045 0.8549879733383484
29 1 0.0 1.7099759466766968 1.7099759466766968
30 1 0.8549879733383484 2.564963920015045 1.7099759466766968
31 1 0.8549879733383484 1.7099759466766968 2.564963920015045
32 1 0.0 2.564963920015045 2.564963920015045
33 1 0.0 1.7099759466766968 3.4199518933533937
34 1 0.8549879733383484 2.564963920015045 3.4199518933533937
35 1 0.8549879733383484 1.7099759466766968 4.274939866691742
36 1 0.0 2.564963920015045 4.274939866691742
37 1 0.0 1.7099759466766968 5.12992784003009
38 1 0.8549879733383484 2.564963920015045 5.12992784003009
39 1 0.8549879733383484 1.7099759466766968 5.984915813368438
40 1 0.0 2.564963920015045 5.984915813368438
41 1 0.0 1.7099759466766968 6.839903786706787
42 1 0.8549879733383484 2.564963920015045 6.839903786706787
43 1 0.8549879733383484 1.7099759466766968 7.694891760045135
44 1 0.0 2.564963920015045 7.694891760045135
45 1 0.0 1.7099759466766968 8.549879733383484
46 1 0.8549879733383484 2.564963920015045 8.549879733383484
47 1 0.8549879733383484 1.7099759466766968 9.404867706721832
48 1 0.0 2.564963920015045 9.404867706721832
49 1 0.0 3.4199518933533937 0.0
50 1 0.8549879733383484 4.274939866691742 0.0
51 1 0.8549879733383484 3.4199518933533937 0.8549879733383484
52 1 0.0 4.274939866691742 0.8549879733383484
53 1 0.0 3.4199518933533937 1.7099759466766968
54 1 0.8549879733383484 4.274939866691742 1.7099759466766968
55 1 0.8549879733383484 3.4199518933533937 2.564963920015045
56 1 0.0 4.274939866691742 2.564963920015045
57 1 0.0 3.4199518933533937 3.4199518933533937
58 1 0.8549879733383484 4.274939866691742 3.4199518933533937
59 1 0.8549879733383484 3.4199518933533937 4.274939866691742
60 1 0.0 4.274939866691742 4.274939866691742
61 1 0.0 3.4199518933533937 5.12992784003009
62 1 0.8549879733383484 4.274939866691742 5.12992784003009
63 1 0.8549879733383484 3.4199518933533937 5.984915813368438
64 1 0.0 4.274939866691742 5.984915813368438
65 1 0.0 3.4199518933533937 6.839903786706787
66 1 0.8549879733383484 4.274939866691742 6.839903786706787
67 1 0.8549879733383484 3.4199518933533937 7.694891760045135
68 1 0.0 4.274939866691742 7.694891760045135
69 1 0.0 3.4199518933533937 8.549879733383484
70 1 0.8549879733383484 4.274939866691742 8.549879733383484
71 1 0.8549879733383484 3.4199518933533937 9.404867706721832
72 1 0.0 4.274939866691742 9.404867706721832
73 1 0.0 5.12992784003009 0.0
74 1 0.8549879733383484 5.984915813368438 0.0
75 1 0.8549879733383484 5.12992784003009 0.8549879733383484
76 1 0.0 5.984915813368438 0.8549879733383484
77 1 0.0 5.12992784003009 1.7099759466766968
78 1 0.8549879733383484 5.984915813368438 1.7099759466766968
79 1 0.8549879733383484 5.12992784003009 2.564963920015045
80 1 0.0 5.984915813368438 2.564963920015045
81 1 0.0 5.12992784003009 3.4199518933533937
82 1 0.8549879733383484 5.984915813368438 3.4199518933533937
83 1 0.8549879733383484 5.12992784003009 4.274939866691742
84 1 0.0 5.984915813368438 4.274939866691742
85 1 0.0 5.12992784003009 5.12992784003009
86 1 0.8549879733383484 5.984915813368438 5.12992784003009
87 1 0.8549879733383484 5.12992784003009 5.984915813368438
88 1 0.0 5.984915813368438 5.984915813368438
89 1 0.0 5.12992784003009 6.839903786706787
90 1 0.8549879733383484 5.984915813368438 6.839903786706787
91 1 0.8549879733383484 5.12992784003009 7.694891760045135
92 1 0.0 5.984915813368438 7.694891760045135
93 1 0.0 5.12992784003009 8.549879733383484
94 1 0.8549879733383484 5.984915813368438 8.549879733383484
95 1 0.8549879733383484 5.12992784003009 9.404867706721832
96 1 0.0 5.984915813368438 9.404867706721832
97 1 0.0 6.839903786706787 0.0
98 1 0.8549879733383484 7.694891760045135 0.0
99 1 0.8549879733383484 6.839903786706787 0.8549879733383484
100 1 0.0 7.694891760045135 0.8549879733383484
101 1 0.0 6.839903786706787 1.7099759466766968
102 1 0.8549879733383484 7.694891760045135 1.7099759466766968
103 1 0.8549879733383484 6.839903786706787 2.564963920015045
104 1 0.0 7.694891760045135 2.564963920015045
105 1 0.0 6.839903786706787 3.4199518933533937
106 1 0.8549879733383484 7.694891760045135 3.4199518933533937
107 1 0.8549879733383484 6.839903786706787 4.274939866691742
108 1 0.0 7.694891760045135 4.274939866691742
109 1 0.0 6.839903786706787 5.12992784003009
110 1 0.8549879733383484 7.694891760045135 5.12992784003009
111 1 0.8549879733383484 6.839903786706787 5.984915813368438
112 1 0.0 7.694891760045135 5.984915813368438
113 1 0.0 6.839903786706787 6.839903786706787
114 1 0.8549879733383484 7.694891760045135 6.839903786706787
115 1 0.8549879733383484 6.839903786706787 7.694891760045135
116 1 0.0 7.694891760045135 7.694891760045135
117 1 0.0 6.839903786706787 8.549879733383484
118 1 0.8549879733383484 7.694891760045135 8.549879733383484
119 1 0.8549879733383484 6.839903786706787 9.404867706721832
120 1 0.0 7.694891760045135 9.404867706721832
121 1 0.0 8.549879733383484 0.0
122 1 0.8549879733383484 9.404867706721832 0.0
123 1 0.8549879733383484 8.549879733383484 0.8549879733383484
124 1 0.0 9.404867706721832 0.8549879733383484
125 1 0.0 8.549879733383484 1.7099759466766968
126 1 0.8549879733383484 9.404867706721832 1.7099759466766968
127 1 0.8549879733383484 8.549879733383484 2.564963920015045
128 1 0.0 9.404867706721832 2.564963920015045
129 1 0.0 8.549879733383484 3.4199518933533937
130 1 0.8549879733383484 9.404867706721832 3.4199518933533937
131 1 0.8549879733383484 8.549879733383484 4.274939866691742
132 1 0.0 9.404867706721832 4.274939866691742
133 1 0.0 8.549879733383484 5.12992784003009
134 1 0.8549879733383484 9.404867706721832 5.12992784003009
135 1 0.8549879733383484 8.549879733383484 5.984915813368438
136 1 0.0 9.404867706721832 5.984915813368438
137 1 0.0 8.549879733383484 6.839903786706787
138 1 0.8549879733383484 9.404867706721832 6.839903786706787
139 1 0.8549879733383484 8.549879733383484 7.694891760045135
140 1 0.0 9.404867706721832 7.694891760045135
141 1 0.0 8.549879733383484 8.549879733383484
142 1 0.8549879733383484 9.404867706721832 8.549879733383484
143 1 0.8549879733383484 8.549879733383484 9.404867706721832
144 1 0.0 9.404867706721832 9.404867706721832
145 1 1.7099759466766968 0.0 0.0
146 1 2.564963920015045 0.8549879733383484 0.0
147 1 2.564963920015045 0.0 0.8549879733383484
148 1 1.7099759466766968 0.8549879733383484 0.8549879733383484
149 1 1.7099759466766968 0.0 1.7099759466766968
150 1 2.564963920015045 0.8549879733383484 1.7099759466766968
151 1 2.564963920015045 0.0 2.564963920015045
152 1 1.7099759466766968 0.8549879733383484 2.564963920015045
153 1 1.7099759466766968 0.0 3.4199518933533937
154 1 2.564963920015045 0.8549879733383484 3.4199518933533937
155 1 2.564963920015045 0.0 4.274939866691742
156 1 1.7099759466766968 0.8549879733383484 4.274939866691742
157 1 1.7099759466766968 0.0 5.12992784003009
158 1 2.564963920015045 0.8549879733383484 5.12992784003009
159 1 2.564963920015045 0.0 5.984915813368438
160 1 1.7099759466766968 0.8549879733383484 5.984915813368438
161 1 1.7099759466766968 0.0 6.839903786706787
162 1 2.564963920015045 0.8549879733383484 6.839903786706787
163 1 2.564963920015045 0.0 7.694891760045135
164 1 1.7099759466766968 0.8549879733383484 7.694891760045135
165 1 1.7099759466766968 0.0 8.549879733383484
166 1 2.564963920015045 0.8549879733383484 8.549879733383484
167 1 2.564963920015045 0.0 9.404867706721832
168 1 1.7099759466766968 0.8549879733383484 9.404867706721832
169 1 1.7099759466766968 1.7099759466766968 0.0
170 1 2.564963920015045 2.564963920015045 0.0
171 1 2.564963920015045 1.7099759466766968 0.8549879733383484
172 1 1.7099759466766968 2.564963920015045 0.8549879733383484
173 1 1.7099759466766968 1.7099759466766968 1.7099759466766968
174 1 2.564963920015045 2.564963920015045 1.7099759466766968
175 1 2.564963920015045 1.7099759466766968 2.564963920015045
176 1 1.7099759466766968 2.564963920015045 2.564963920015045
177 1 1.7099759466766968 1.7099759466766968 3.4199518933533937
178 1 2.564963920015045 2.564963920015045 3.4199518933533937
179 1 2.564963920015045 1.7099759466766968 4.274939866691742
180 1 1.7099759466766968 2.564963920015045 4.274939866691742
181 1 1.7099759466766968 1.7099759466766968 5.12992784003009
182 1 2.564963920015045 2.564963920015045 5.12992784003009
183 1 2.564963920015045 1.7099759466766968 5.984915813368438
184 1 1.7099759466766968 2.564963920015045 5.984915813368438
185 1 1.7099759466766968 1.7099759466766968 6.839903786706787
186 1 2.564963920015045 2.564963920015045 6.839903786706787
187 1 2.564963920015045 1.7099759466766968 7.694891760045135
188 1 1.7099759466766968 2.564963920015045 7.694891760045135
189 1 1.7099759466766968 1.7099759466766968 8.549879733383484
190 1 2.564963920015045 2.564963920015045 8.549879733383484
191 1 2.564963920015045 1.7099759466766968 9.404867706721832
192 1 1.7099759466766968 2.564963920015045 9.404867706721832
193 1 1.7099759466766968 3.4199518933533937 0.0
194 1 2.564963920015045 4.274939866691742 0.0
195 1 2.564963920015045 3.4199518933533937 0.8549879733383484
196 1 1.7099759466766968 4.274939866691742 0.8549879733383484
197 1 1.7099759466766968 3.4199518933533937 1.7099759466766968
198 1 2.564963920015045 4.274939866691742 1.7099759466766968
199 1 2.564963920015045 3.4199518933533937 2.564963920015045
200 1 1.7099759466766968 4.274939866691742 2.564963920015045
201 1 1.7099759466766968 3.4199518933533937 3.4199518933533937
202 1 2.564963920015045 4.274939866691742 3.4199518933533937
203 1 2.564963920015045 3.4199518933533937 4.274939866691742
204 1 1.7099759466766968 4.274939866691742 4.274939866691742
205 1 1.7099759466766968 3.4199518933533937 5.12992784003009
206 1 2.564963920015045 4.274939866691742 5.12992784003009
207 1 2.564963920015045 3.4199518933533937 5.984915813368438
208 1 1.7099759466766968 4.274939866691742 5.984915813368438
209 1 1.7099759466766968 3.4199518933533937 6.839903786706787
210 1 2.564963920015045 4.274939866691742 6.839903786706787
211 1 2.564963920015045 3.4199518933533937 7.694891760045135
212 1 1.7099759466766968 4.274939866691742 7.694891760045135
213 1 1.7099759466766968 3.4199518933533937 8.549879733383484
214 1 2.564963920015045 4.274939866691742 8.549879733383484
215 1 2.564963920015045 3.4199518933533937 9.404867706721832
216 1 1.7099759466766968 4.274939866691742 9.404867706721832
217 1 1.7099759466766968 5.12992784003009 0.0
218 1 2.564963920015045 5.984915813368438 0.0
219 1 2.564963920015045 5.12992784003009 0.8549879733383484
220 1 1.7099759466766968 5.984915813368438 0.8549879733383484
221 1 1.7099759466766968 5.12992784003009 1.7099759466766968
222 1 2.564963920015045 5.984915813368438 1.7099759466766968
223 1 2.564963920015045 5.12992784003009 2.564963920015045
224 1 1.7099759466766968 5.984915813368438 2.564963920015045
225 1 1.7099759466766968 5.12992784003009 3.4199518933533937
226 1 2.564963920015045 5.984915813368438 3.4199518933533937
227 1 2.564963920015045 5.12992784003009 4.274939866691742
228 1 1.7099759466766968 5.984915813368438 4.274939866691742
229 1 1.7099759466766968 5.12992784003009 5.12992784003009
230 1 2.564963920015045 5.984915813368438 5.12992784003009
231 1 2.564963920015045 5.12992784003009 5.984915813368438
232 1 1.7099759466766968 5.984915813368438 5.984915813368438
233 1 1.7099759466766968 5.12992784003009 6.839903786706787
234 1 2.564963920015045 5.984915813368438 6.839903786706787
235 1 2.564963920015045 5.12992784003009 7.694891760045135
236 1 1.7099759466766968 5.984915813368438 7.694891760045135
237 1 1.7099759466766968 5.12992784003009 8.549879733383484
238 1 2.564963920015045 5.984915813368438 8.549879733383484
239 1 2.564963920015045 5.12992784003009 9.404867706721832
240 1 1.7099759466766968 5.984915813368438 9.404867706721832
241 1 1.7099759466766968 6.839903786706787 0.0
242 1 2.564963920015045 7.694891760045135 0.0
243 1 2.564963920015045 6.839903786706787 0.8549879733383484
244 1 1.7099759466766968 7.694891760045135 0.8549879733383484
245 1 1.7099759466766968 6.839903786706787 1.7099759466766968
246 1 2.564963920015045 7.694891760045135 1.7099759466766968
247 1 2.564963920015045 6.839903786706787 2.564963920015045
248 1 1.7099759466766968 7.694891760045135 2.564963920015045
249 1 1.7099759466766968 6.839903786706787 3.4199518933533937
250 1 2.564963920015045 7.694891760045135 3.4199518933533937
251 1 2.564963920015045 6.839903786706787 4.274939866691742
252 1 1.7099759466766968 7.694891760045135 4.274939866691742
253 1 1.7099759466766968 6.839903786706787 5.12992784003009
254 1 2.564963920015045 7.694891760045135 5.12992784003009
255 1 2.564963920015045 6.839903786706787 5.984915813368438
256 1 1.7099759466766968 7.694891760045135 5.984915813368438
257 1 1.7099759466766968 6.839903786706787 6.839903786706787
258 1 2.564963920015045 7.694891760045135 6.839903786706787
259 1 2.564963920015045 6.839903786706787 7.694891760045135
260 1 1.7099759466766968 7.694891760045135 7.694891760045135
261 1 1.7099759466766968 6.839903786706787 8.549879733383484
262 1 2.564963920015045 7.694891760045135 8.549879733383484
263 1 2.564963920015045 6.839903786706787 9.404867706721832
264 1 1.7099759466766968 7.694891760045135 9.404867706721832
265 1 1.7099759466766968 8.549879733383484 0.0
266 1 2.564963920015045 9.404867706721832 0.0
267 1 2.564963920015045 8.549879733383484 0.8549879733383484
268 1 1.7099759466766968 9.404867706721832 0.8549879733383484
269 1 1.7099759466766968 8.549879733383484 1.7099759466766968
270 1 2.564963920015045 9.404867706721832 1.7099759466766968
271 1 2.564963920015045 8.549879733383484 2.564963920015045
272 1 1.7099759466766968 9.404867706721832 2.564963920015045
273 1 1.7099759466766968 8.549879733383484 3.4199518933533937
274 1 2.564963920015045 9.404867706721832 3.4199518933533937
275 1 2.564963920015045 8.549879733383484 4.274939866691742
276 1 1.7099759466766968 9.404867706721832 4.274939866691742
277 1 1.7099759466766968 8.549879733383484 5.12992784003009
278 1 2.564963920015045 9.404867706721832 5.12992784003009
279 1 2.564963920015045 8.549879733383484 5.984915813368438
280 1 1.7099759466766968 9.404867706721832 5.984915813368438
281 1 1.7099759466766968 8.549879733383484 6.839903786706787
282 1 2.564963920015045 9.404867706721832 6.839903786706787
283 1 2.564963920015045 8.549879733383484 7.694891760045135
284 1 1.7099759466766968 9.404867706721832 7.694891760045135
285 1 1.7099759466766968 8.549879733383484 8.549879733383484
286 1 2.564963920015045 9.404867706721832 8.549879733383484
287 1 2.564963920015045 8.549879733383484 9.404867706721832
288 1 1.7099759466766968 9.404867706721832 9.404867706721832
289 1 3.4199518933533937 0.0 0.0
290 1 4.274939866691742 0.8549879733383484 0.0
291 1 4.274939866691742 0.0 0.8549879733383484
292 1 3.4199518933533937 0.8549879733383484 0.8549879733383484
293 1 3.4199518933533937 0.0 1.7099759466766968
294 1 4.274939866691742 0.8549879733383484 1.7099759466766968
295 1 4.274939866691742 0.0 2.564963920015045
296 1 3.4199518933533937 0.8549879733383484 2.564963920015045
297 1 3.4199518933533937 0.0 3.4199518933533937
298 1 4.274939866691742 0.8549879733383484 3.4199518933533937
299 1 4.274939866691742 0.0 4.274939866691742
300 1 3.4199518933533937 0.8549879733383484 4.274939866691742
301 1 3.4199518933533937 0.0 5.12992784003009
302 1 4.274939866691742 0.8549879733383484 5.12992784003009
303 1 4.274939866691742 0.0 5.984915813368438
304 1 3.4199518933533937 0.8549879733383484 5.984915813368438
305 1 3.4199518933533937 0.0 6.839903786706787
306 1 4.274939866691742 0.8549879733383484 6.839903786706787
307 1 4.274939866691742 0.0 7.694891760045135
308 1 3.4199518933533937 0.8549879733383484 7.694891760045135
309 1 3.4199518933533937 0.0 8.549879733383484
310 1 4.274939866691742 0.8549879733383484 8.549879733383484
311 1 4.274939866691742 0.0 9.404867706721832
312 1 3.4199518933533937 0.8549879733383484 9.404867706721832
313 1 3.4199518933533937 1.7099759466766968 0.0
314 1 4.274939866691742 2.564963920015045 0.0
315 1 4.274939866691742 1.7099759466766968 0.8549879733383484
316 1 3.4199518933533937 2.564963920015045 0.8549879733383484
317 1 3.4199518933533937 1.7099759466766968 1.7099759466766968
318 1 4.274939866691742 2.564963920015045 1.7099759466766968
319 1 4.274939866691742 1.7099759466766968 2.564963920015045
320 1 3.4199518933533937 2.564963920015045 2.564963920015045
321 1 3.4199518933533937 1.7099759466766968 3.4199518933533937
322 1 4.274939866691742 2.564963920015045 3.4199518933533937
323 1 4.274939866691742 1.7099759466766968 4.274939866691742
324 1 3.4199518933533937 2.564963920015045 4.274939866691742
325 1 3.4199518933533937 1.7099759466766968 5.12992784003009
326 1 4.274939866691742 2.564963920015045 5.12992784003009
327 1 4.274939866691742 1.7099759466766968 5.984915813368438
328 1 3.4199518933533937 2.564963920015045 5.984915813368438
329 1 3.4199518933533937 1.7099759466766968 6.839903786706787
330 1 4.274939866691742 2.564963920015045 6.839903786706787
331 1 4.274939866691742 1.7099759466766968 7.694891760045135
332 1 3.4199518933533937 2.564963920015045 7.694891760045135
333 1 3.4199518933533937 1.7099759466766968 8.549879733383484
334 1 4.274939866691742 2.564963920015045 8.549879733383484
335 1 4.274939866691742 1.7099759466766968 9.404867706721832
336 1 3.4199518933533937 2.564963920015045 9.404867706721832
337 1 3.4199518933533937 3.4199518933533937 0.0
338 1 4.274939866691742 4.274939866691742 0.0
339 1 4.274939866691742 3.4199518933533937 0.8549879733383484
340 1 3.4199518933533937 4.274939866691742 0.8549879733383484
341 1 3.4199518933533937 3.4199518933533937 1.7099759466766968
342 1 4.274939866691742 4.274939866691742 1.7099759466766968
343 1 4.274939866691742 3.4199518933533937 2.564963920015045
344 1 3.4199518933533937 4.274939866691742 2.564963920015045
345 1 3.4199518933533937 3.4199518933533937 3.4199518933533937
346 1 4.274939866691742 4.274939866691742 3.4199518933533937
347 1 4.274939866691742 3.4199518933533937 4.274939866691742
348 1 3.4199518933533937 4.274939866691742 4.274939866691742
349 1 3.4199518933533937 3.4199518933533937 5.12992784003009
350 1 4.274939866691742 4.274939866691742 5.12992784003009
351 1 4.274939866691742 3.4199518933533937 5.984915813368438
352 1 3.4199518933533937 4.274939866691742 5.984915813368438
353 1 3.4199518933533937 3.4199518933533937 6.839903786706787
354 1 4.274939866691742 4.274939866691742 6.839903786706787
355 1 4.274939866691742 3.4199518933533937 7.694891760045135
356 1 3.4199518933533937 4.274939866691742 7.694891760045135
357 1 3.4199518933533937 3.4199518933533937 8.549879733383484
358 1 4.274939866691742 4.274939866691742 8.549879733383484
359 1 4.274939866691742 3.4199518933533937 9.404867706721832
360 1 3.4199518933533937 4.274939866691742 9.404867706721832
361 1 3.4199518933533937 5.12992784003009 0.0
362 1 4.274939866691742 5.984915813368438 0.0
363 1 4.274939866691742 5.12992784003009 0.8549879733383484
364 1 3.4199518933533937 5.984915813368438 0.8549879733383484
365 1 3.4199518933533937 5.12992784003009 1.7099759466766968
366 1 4.274939866691742 5.984915813368438 1.7099759466766968
367 1 4.274939866691742 5.12992784003009 2.564963920015045
368 1 3.4199518933533937 5.984915813368438 2.564963920015045
369 1 3.4199518933533937 5.12992784003009 3.4199518933533937
370 1 4.274939866691742 5.984915813368438 3.4199518933533937
371 1 4.274939866691742 5.12992784003009 4.274939866691742
372 1 3.4199518933533937 5.984915813368438 4.274939866691742
373 1 3.4199518933533937 5.12992784003009 5.12992784003009
374 1 4.274939866691742 5.984915813368438 5.12992784003009
375 1 4.274939866691742 5.12992784003009 5.984915813368438
376 1 3.4199518933533937 5.984915813368438 5.984915813368438
377 1 3.4199518933533937 5.12992784003009 6.839903786706787
378 1 4.274939866691742 5.984915813368438 6.839903786706787
379 1 4.274939866691742 5.12992784003009 7.694891760045135
380 1 3.4199518933533937 5.984915813368438 7.694891760045135
381 1 3.4199518933533937 5.12992784003009 8.549879733383484
382 1 4.274939866691742 5.984915813368438 8.549879733383484
383 1 4.274939866691742 5.12992784003009 9.404867706721832
384 1 3.4199518933533937 5.984915813368438 9.404867706721832
385 1 3.4199518933533937 6.839903786706787 0.0
386 1 4.274939866691742 7.694891760045135 0.0
387 1 4.274939866691742 6.839903786706787 0.8549879733383484
388 1 3.4199518933533937 7.694891760045135 0.8549879733383484
389 1 3.4199518933533937 6.839903786706787 1.7099759466766968
390 1 4.274939866691742 7.694891760045135 1.7099759466766968
391 1 4.274939866691742 6.839903786706787 2.564963920015045
392 1 3.4199518933533937 7.694891760045135 2.564963920015045
393 1 3.4199518933533937 6.839903786706787 3.4199518933533937
394 1 4.274939866691742 7.694891760045135 3.4199518933533937
395 1 4.274939866691742 6.839903786706787 4.274939866691742
396 1 3.4199518933533937 7.694891760045135 4.274939866691742
397 1 3.4199518933533937 6.839903786706787 5.12992784003009
398 1 4.274939866691742 7.694891760045135 5.12992784003009
399 1 4.274939866691742 6.839903786706787 5.984915813368438
400 1 3.4199518933533937 7.694891760045135 5.984915813368438
401 1 3.4199518933533937 6.839903786706787 6.839903786706787
402 1 4.274939866691742 7.694891760045135 6.839903786706787
403 1 4.274939866691742 6.839903786706787 7.694891760045135
404 1 3.4199518933533937 7.694891760045135 7.694891760045135
405 1 3.4199518933533937 6.839903786706787 8.549879733383484
406 1 4.274939866691742 7.694891760045135 8.549879733383484
407 1 4.274939866691742 6.839903786706787 9.404867706721832
408 1 3.4199518933533937 7.694891760045135 9.404867706721832
409 1 3.4199518933533937 8.549879733383484 0.0
410 1 4.274939866691742 9.404867706721832 0.0
411 1 4.274939866691742 8.549879733383484 0.8549879733383484
412 1 3.4199518933533937 9.404867706721832 0.8549879733383484
413 1 3.4199518933533937 8.549879733383484 1.7099759466766968
414 1 4.274939866691742 9.404867706721832 1.7099759466766968
415 1 4.274939866691742 8.549879733383484 2.564963920015045
416 1 3.4199518933533937 9.404867706721832 2.564963920015045
417 1 3.4199518933533937 8.549879733383484 3.4199518933533937
418 1 4.274939866691742 9.404867706721832 3.4199518933533937
419 1 4.274939866691742 8.549879733383484 4.274939866691742
420 1 3.4199518933533937 9.404867706721832 4.274939866691742
421 1 3.4199518933533937 8.549879733383484 5.12992784003009
422 1 4.274939866691742 9.404867706721832 5.12992784003009
423 1 4.274939866691742 8.549879733383484 5.984915813368438
424 1 3.4199518933533937 9.404867706721832 5.984915813368438
425 1 3.4199518933533937 8.549879733383484 6.839903786706787
426 1 4.274939866691742 9.404867706721832 6.839903786706787
427 1 4.274939866691742 8.549879733383484 7.694891760045135
428 1 3.4199518933533937 9.404867706721832 7.694891760045135
429 1 3.4199518933533937 8.549879733383484 8.549879733383484
430 1 4.274939866691742 9.404867706721832 8.549879733383484
431 1 4.274939866691742 8.549879733383484 9.404867706721832
432 1 3.4199518933533937 9.404867706721832 9.404867706721832
433 1 5.12992784003009 0.0 0.0
434 1 5.984915813368438 0.8549879733383484 0.0
435 1 5.984915813368438 0.0 0.8549879733383484
436 1 5.12992784003009 0.8549879733383484 0.8549879733383484
437 1 5.12992784003009 0.0 1.7099759466766968
438 1 5.984915813368438 0.8549879733383484 1.7099759466766968
439 1 5.984915813368438 0.0 2.564963920015045
440 1 5.12992784003009 0.8549879733383484 2.564963920015045
441 1 5.12992784003009 0.0 3.4199518933533937
442 1 5.984915813368438 0.8549879733383484 3.4199518933533937
443 1 5.984915813368438 0.0 4.274939866691742
444 1 5.12992784003009 0.8549879733383484 4.274939866691742
445 1 5.12992784003009 0.0 5.12992784003009
446 1 5.984915813368438 0.8549879733383484 5.12992784003009
447 1 5.984915813368438 0.0 5.984915813368438
448 1 5.12992784003009 0.8549879733383484 5.984915813368438
449 1 5.12992784003009 0.0 6.839903786706787
450 1 5.984915813368438 0.8549879733383484 6.839903786706787
451 1 5.984915813368438 0.0 7.694891760045135
452 1 5.12992784003009 0.8549879733383484 7.694891760045135
453 1 5.12992784003009 0.0 8.549879733383484
454 1 5.984915813368438 0.8549879733383484 8.549879733383484
455 1 5.984915813368438 0.0 9.404867706721832
456 1 5.12992784003009 0.8549879733383484 9.404867706721832
457 1 5.12992784003009 1.7099759466766968 0.0
458 1 5.984915813368438 2.564963920015045 0.0
459 1 5.984915813368438 1.7099759466766968 0.8549879733383484
460 1 5.12992784003009 2.564963920015045 0.8549879733383484
461 1 5.12992784003009 1.7099759466766968 1.7099759466766968
462 1 5.984915813368438 2.564963920015045 1.7099759466766968
463 1 5.984915813368438 1.7099759466766968 2.564963920015045
464 1 5.12992784003009 2.564963920015045 2.564963920015045
465 1 5.12992784003009 1.7099759466766968 3.4199518933533937
466 1 5.984915813368438 2.564963920015045 3.4199518933533937
467 1 5.984915813368438 1.7099759466766968 4.274939866691742
468 1 5.12992784003009 2.564963920015045 4.274939866691742
469 1 5.12992784003009 1.7099759466766968 5.12992784003009
470 1 5.984915813368438 2.564963920015045 5.12992784003009
471 1 5.984915813368438 1.7099759466766968 5.984915813368438
472 1 5.12992784003009 2.564963920015045 5.984915813368438
473 1 5.12992784003009 1.7099759466766968 6.839903786706787
474 1 5.984915813368438 2.564963920015045 6.839903786706787
475 1 5.984915813368438 1.7099759466766968 7.694891760045135
476 1 5.12992784003009 2.564963920015045 7.694891760045135
477 1 5.12992784003009 1.7099759466766968 8.549879733383484
478 1 5.984915813368438 2.564963920015045 8.549879733383484
479 1 5.984915813368438 1.7099759466766968 9.404867706721832
480 1 5.12992784003009 2.564963920015045 9.404867706721832
481 1 5.12992784003009 3.4199518933533937 0.0
482 1 5.984915813368438 4.274939866691742 0.0
483 1 5.984915813368438 3.4199518933533937 0.8549879733383484
484 1 5.12992784003009 4.274939866691742 0.8549879733383484
485 1 5.12992784003009 3.4199518933533937 1.7099759466766968
486 1 5.984915813368438 4.274939866691742 1.7099759466766968
487 1 5.984915813368438 3.4199518933533937 2.564963920015045
488 1 5.12992784003009 4.274939866691742 2.564963920015045
489 1 5.12992784003009 3.4199518933533937 3.4199518933533937
490 1 5.984915813368438 4.274939866691742 3.4199518933533937
491 1 5.984915813368438 3.4199518933533937 4.274939866691742
492 1 5.12992784003009 4.274939866691742 4.274939866691742
493 1 5.12992784003009 3.4199518933533937 5.12992784003009
494 1 5.984915813368438 4.274939866691742 5.12992784003009
495 1 5.984915813368438 3.4199518933533937 5.984915813368438
496 1 5.12992784003009 4.274939866691742 5.984915813368438
497 1 5.12992784003009 3.4199518933533937 6.839903786706787
498 1 5.984915813368438 4.274939866691742 6.839903786706787
499 1 5.984915813368438 3.4199518933533937 7.694891760045135
500 1 5.12992784003009 4.274939866691742 7.694891760045135
501 1 5.12992784003009 3.4199518933533937 8.549879733383484
502 1 5.984915813368438 4.274939866691742 8.549879733383484
503 1 5.984915813368438 3.4199518933533937 9.404867706721832
504 1 5.12992784003009 4.274939866691742 9.404867706721832
505 1 5.12992784003009 5.12992784003009 0.0
506 1 5.984915813368438 5.984915813368438 0.0
507 1 5.984915813368438 5.12992784003009 0.8549879733383484
508 1 5.12992784003009 5.984915813368438 0.8549879733383484
509 1 5.12992784003009 5.12992784003009 1.7099759466766968
510 1 5.984915813368438 5.984915813368438 1.7099759466766968
511 1 5.984915813368438 5.12992784003009 2.564963920015045
512 1 5.12992784003009 5.984915813368438 2.564963920015045
513 1 5.12992784003009 5.12992784003009 3.4199518933533937
514 1 5.984915813368438 5.984915813368438 3.4199518933533937
515 1 5.984915813368438 5.12992784003009 4.274939866691742
516 1 5.12992784003009 5.984915813368438 4.274939866691742
517 1 5.12992784003009 5.12992784003009 5.12992784003009
518 1 5.984915813368438 5.984915813368438 5.12992784003009
519 1 5.984915813368438 5.12992784003009 5.984915813368438
520 1 5.12992784003009 5.984915813368438 5.984915813368438
521 1 5.12992784003009 5.12992784003009 6.839903786706787
522 1 5.984915813368438 5.984915813368438 6.839903786706787
523 1 5.984915813368438 5.12992784003009 7.694891760045135
524 1 5.12992784003009 5.984915813368438 7.694891760045135
525 1 5.12992784003009 5.12992784003009 8.549879733383484
526 1 5.984915813368438 5.984915813368438 8.549879733383484
527 1 5.984915813368438 5.12992784003009 9.404867706721832
528 1 5.12992784003009 5.984915813368438 9.404867706721832
529 1 5.12992784003009 6.839903786706787 0.0
530 1 5.984915813368438 7.694891760045135 0.0
531 1 5.984915813368438 6.839903786706787 0.8549879733383484
532 1 5.12992784003009 7.694891760045135 0.8549879733383484