Position Data

864 atoms
1 atom types

0.0 19.048812623618392 xlo xhi
0.0 9.524406311809196 ylo yhi
0.0 9.524406311809196 zlo zhi

Atoms

1 1 0.0 0.0 0.0
2 1 0.7937005259840997 0.7937005259840997 0.0
3 1 0.7937005259840997 0.0 0.7937005259840997
4 1 0.0 0.7937005259840997 0.7937005259840997
5 1 0.0 0.0 1.5874010519681994
6 1 0.7937005259840997 0.7937005259840997 1.5874010519681994
7 1 0.7937005259840997 0.0 2.381101577952299
8 1 0.0 0.7937005259840997 2.381101577952299
9 1 0.0 0.0 3.1748021039363987
10 1 0.7937005259840997 0.7937005259840997 3.1748021039363987
11 1 0.7937005259840997 0.0 3.9685026299204984
12 1 0.0 0.7937005259840997 3.9685026299204984
13 1 0.0 0.0 4.762203155904598
14 1 0.7937005259840997 0.7937005259840997 4.762203155904598
15 1 0.7937005259840997 0.0 5.555903681888697
16 1 0.0 0.7937005259840997 5.555903681888697
17 1 0.0 0.0 6.3496042078727974
18 1 0.7937005259840997 0.7937005259840997 6.3496042078727974
19 1 0.7937005259840997 0.0 7.143304733856898
20 1 0.0 0.7937005259840997 7.143304733856898
21 1 0.0 0.0 7.937005259840997
22 1 0.7937005259840997 0.7937005259840997 7.937005259840997
23 1 0.7937005259840997 0.0 8.730705785825096
24 1 0.0 0.7937005259840997 8.730705785825096
25 1 0.0 1.5874010519681994 0.0
26 1 0.7937005259840997 2.381101577952299 0.0
27 1 0.7937005259840997 1.5874010519681994 0.7937005259840997
28 1 0.0 2.381101577952299 0.7937005259840997
29 1 0.0 1.5874010519681994 1.5874010519681994
30 1 0.7937005259840997 2.381101577952299 1.5874010519681994
31 1 0.7937005259840997 1.5874010519681994 2.381101577952299
32 1 0.0 2.381101577952299 2.381101577952299
33 1 0.0 1.5874010519681994 3.1748021039363987
34 1 0.7937005259840997 2.381101577952299 3.1748021039363987
35 1 0.7937005259840997 1.5874010519681994 3.9685026299204984
36 1 0.0 2.381101577952299 3.9685026299204984
37 1 0.0 1.5874010519681994 4.762203155904598
38 1 0.7937005259840997 2.381101577952299 4.762203155904598
39 1 0.7937005259840997 1.5874010519681994 5.555903681888697
40 1 0.0 2.381101577952299 5.555903681888697
41 1 0.0 1.5874010519681994 6.3496042078727974
42 1 0.7937005259840997 2.381101577952299 6.3496042078727974
43 1 0.7937005259840997 1.5874010519681994 7.143304733856898
44 1 0.0 2.381101577952299 7.143304733856898
45 1 0.0 1.5874010519681994 7.937005259840997
46 1 0.7937005259840997 2.381101577952299 7.937005259840997
47 1 0.7937005259840997 1.5874010519681994 8.730705785825096
48 1 0.0 2.381101577952299 8.730705785825096
49 1 0.0 3.1748021039363987 0.0
50 1 0.7937005259840997 3.9685026299204984 0.0
51 1 0.7937005259840997 3.1748021039363987 0.7937005259840997
52 1 0.0 3.9685026299204984 0.7937005259840997
53 1 0.0 3.1748021039363987 1.5874010519681994
54 1 0.7937005259840997 3.9685026299204984 1.5874010519681994
55 1 0.7937005259840997 3.1748021039363987 2.381101577952299
56 1 0.0 3.9685026299204984 2.381101577952299
57 1 0.0 3.1748021039363987 3.1748021039363987
58 1 0.7937005259840997 3.9685026299204984 3.1748021039363987
59 1 0.7937005259840997 3.1748021039363987 3.9685026299204984
60 1 0.0 3.9685026299204984 3.9685026299204984
61 1 0.0 3.1748021039363987 4.762203155904598
62 1 0.7937005259840997 3.9685026299204984 4.762203155904598
63 1 0.7937005259840997 3.1748021039363987 5.555903681888697
64 1 0.0 3.9685026299204984 5.555903681888697
65 1 0.0 3.1748021039363987 6.3496042078727974
66 1 0.7937005259840997 3.9685026299204984 6.3496042078727974
67 1 0.7937005259840997 3.1748021039363987 7.143304733856898
68 1 0.0 3.9685026299204984 7.143304733856898
69 1 0.0 3.1748021039363987 7.937005259840997
70 1 0.7937005259840997 3.9685026299204984 7.937005259840997
71 1 0.7937005259840997 3.1748021039363987 8.730705785825096
72 1 0.0 3.9685026299204984 8.730705785825096
73 1 0.0 4.762203155904598 0.0
74 1 0.7937005259840997 5.555903681888697 0.0
75 1 0.7937005259840997 4.762203155904598 0.7937005259840997
76 1 0.0 5.555903681888697 0.7937005259840997
77 1 0.0 4.762203155904598 1.5874010519681994
78 1 0.7937005259840997 5.555903681888697 1.5874010519681994
79 1 0.7937005259840997 4.762203155904598 2.381101577952299
80 1 0.0 5.555903681888697 2.381101577952299
81 1 0.0 4.762203155904598 3.1748021039363987
82 1 0.7937005259840997 5.555903681888697 3.1748021039363987
83 1 0.7937005259840997 4.762203155904598 3.9685026299204984
84 1 0.0 5.555903681888697 3.9685026299204984
85 1 0.0 4.762203155904598 4.762203155904598
86 1 0.7937005259840997 5.555903681888697 4.762203155904598
87 1 0.7937005259840997 4.762203155904598 5.555903681888697
88 1 0.0 5.555903681888697 5.555903681888697
89 1 0.0 4.762203155904598 6.3496042078727974
90 1 0.7937005259840997 5.555903681888697 6.3496042078727974
91 1 0.7937005259840997 4.762203155904598 7.143304733856898
92 1 0.0 5.555903681888697 7.143304733856898
93 1 0.0 4.762203155904598 7.937005259840997
94 1 0.7937005259840997 5.555903681888697 7.937005259840997
95 1 0.7937005259840997 4.762203155904598 8.730705785825096
96 1 0.0 5.555903681888697 8.730705785825096
97 1 0.0 6.3496042078727974 0.0
98 1 0.7937005259840997 7.143304733856898 0.0
99 1 0.7937005259840997 6.3496042078727974 0.7937005259840997
100 1 0.0 7.143304733856898 0.7937005259840997
101 1 0.0 6.3496042078727974 1.5874010519681994
102 1 0.7937005259840997 7.143304733856898 1.5874010519681994
103 1 0.7937005259840997 6.3496042078727974 2.381101577952299
104 1 0.0 7.143304733856898 2.381101577952299
105 1 0.0 6.3496042078727974 3.1748021039363987
106 1 0.7937005259840997 7.143304733856898 3.1748021039363987
107 1 0.7937005259840997 6.3496042078727974 3.9685026299204984
108 1 0.0 7.143304733856898 3.9685026299204984
109 1 0.0 6.3496042078727974 4.762203155904598
110 1 0.7937005259840997 7.143304733856898 4.762203155904598
111 1 0.7937005259840997 6.3496042078727974 5.555903681888697
112 1 0.0 7.143304733856898 5.555903681888697
113 1 0.0 6.3496042078727974 6.3496042078727974
114 1 0.7937005259840997 7.143304733856898 6.3496042078727974
115 1 0.7937005259840997 6.3496042078727974 7.143304733856898
116 1 0.0 7.143304733856898 7.143304733856898
117 1 0.0 6.3496042078727974 7.937005259840997
118 1 0.7937005259840997 7.143304733856898 7.937005259840997
119 1 0.7937005259840997 6.3496042078727974 8.730705785825096
120 1 0.0 7.143304733856898 8.730705785825096
121 1 0.0 7.937005259840997 0.0
122 1 0.7937005259840997 8.730705785825096 0.0
123 1 0.7937005259840997 7.937005259840997 0.7937005259840997
124 1 0.0 8.730705785825096 0.7937005259840997
125 1 0.0 7.937005259840997 1.5874010519681994
126 1 0.7937005259840997 8.730705785825096 1.5874010519681994
127 1 0.7937005259840997 7.937005259840997 2.381101577952299
128 1 0.0 8.730705785825096 2.381101577952299
129 1 0.0 7.937005259840997 3.1748021039363987
130 1 0.7937005259840997 8.730705785825096 3.1748021039363987
131 1 0.7937005259840997 7.937005259840997 3.9685026299204984
132 1 0.0 8.730705785825096 3.9685026299204984
133 1 0.0 7.937005259840997 4.762203155904598
134 1 0.7937005259840997 8.730705785825096 4.762203155904598
135 1 0.7937005259840997 7.937005259840997 5.555903681888697
136 1 0.0 8.730705785825096 5.555903681888697
137 1 0.0 7.937005259840997 6.3496042078727974
138 1 0.7937005259840997 8.730705785825096 6.3496042078727974
139 1 0.7937005259840997 7.937005259840997 7.143304733856898
140 1 0.0 8.730705785825096 7.143304733856898
141 1 0.0 7.937005259840997 7.937005259840997
142 1 0.7937005259840997 8.730705785825096 7.937005259840997
143 1 0.7937005259840997 7.937005259840997 8.730705785825096
144 1 0.0 8.730705785825096 8.730705785825096
145 1 1.5874010519681994 0.0 0.0
146 1 2.381101577952299 0.7937005259840997 0.0
147 1 2.381101577952299 0.0 0.7937005259840997
148 1 1.5874010519681994 0.7937005259840997 0.7937005259840997
149 1 1.5874010519681994 0.0 1.5874010519681994
150 1 2.381101577952299 0.7937005259840997 1.5874010519681994
151 1 2.381101577952299 0.0 2.381101577952299
152 1 1.5874010519681994 0.7937005259840997 2.381101577952299
153 1 1.5874010519681994 0.0 3.1748021039363987
154 1 2.381101577952299 0.7937005259840997 3.1748021039363987
155 1 2.381101577952299 0.0 3.9685026299204984
156 1 1.5874010519681994 0.7937005259840997 3.9685026299204984
157 1 1.5874010519681994 0.0 4.762203155904598
158 1 2.381101577952299 0.7937005259840997 4.762203155904598
159 1 2.381101577952299 0.0 5.555903681888697
160 1 1.5874010519681994 0.7937005259840997 5.555903681888697
161 1 1.5874010519681994 0.0 6.3496042078727974
162 1 2.381101577952299 0.7937005259840997 6.3496042078727974
163 1 2.381101577952299 0.0 7.143304733856898
164 1 1.5874010519681994 0.7937005259840997 7.143304733856898
165 1 1.5874010519681994 0.0 7.937005259840997
166 1 2.381101577952299 0.7937005259840997 7.937005259840997
167 1 2.381101577952299 0.0 8.730705785825096
168 1 1.5874010519681994 0.7937005259840997 8.730705785825096
169 1 1.5874010519681994 1.5874010519681994 0.0
170 1 2.381101577952299 2.381101577952299 0.0
171 1 2.381101577952299 1.5874010519681994 0.7937005259840997
172 1 1.5874010519681994 2.381101577952299 0.7937005259840997
173 1 1.5874010519681994 1.5874010519681994 1.5874010519681994
174 1 2.381101577952299 2.381101577952299 1.5874010519681994
175 1 2.381101577952299 1.5874010519681994 2.381101577952299
176 1 1.5874010519681994 2.381101577952299 2.381101577952299
177 1 1.5874010519681994 1.5874010519681994 3.1748021039363987
178 1 2.381101577952299 2.381101577952299 3.1748021039363987
179 1 2.381101577952299 1.5874010519681994 3.9685026299204984
180 1 1.5874010519681994 2.381101577952299 3.9685026299204984
181 1 1.5874010519681994 1.5874010519681994 4.762203155904598
182 1 2.381101577952299 2.381101577952299 4.762203155904598
183 1 2.381101577952299 1.5874010519681994 5.555903681888697
184 1 1.5874010519681994 2.381101577952299 5.555903681888697
185 1 1.5874010519681994 1.5874010519681994 6.3496042078727974
186 1 2.381101577952299 2.381101577952299 6.3496042078727974
187 1 2.381101577952299 1.5874010519681994 7.143304733856898
188 1 1.5874010519681994 2.381101577952299 7.143304733856898
189 1 1.5874010519681994 1.5874010519681994 7.937005259840997
190 1 2.381101577952299 2.381101577952299 7.937005259840997
191 1 2.381101577952299 1.5874010519681994 8.730705785825096
192 1 1.5874010519681994 2.381101577952299 8.730705785825096
193 1 1.5874010519681994 3.1748021039363987 0.0
194 1 2.381101577952299 3.9685026299204984 0.0
195 1 2.381101577952299 3.1748021039363987 0.7937005259840997
196 1 1.5874010519681994 3.9685026299204984 0.7937005259840997
197 1 1.5874010519681994 3.1748021039363987 1.5874010519681994
198 1 2.381101577952299 3.9685026299204984 1.5874010519681994
199 1 2.381101577952299 3.1748021039363987 2.381101577952299
200 1 1.5874010519681994 3.9685026299204984 2.381101577952299
201 1 1.5874010519681994 3.1748021039363987 3.1748021039363987
202 1 2.381101577952299 3.9685026299204984 3.1748021039363987
203 1 2.381101577952299 3.1748021039363987 3.9685026299204984
204 1 1.5874010519681994 3.9685026299204984 3.9685026299204984
205 1 1.5874010519681994 3.1748021039363987 4.762203155904598
206 1 2.381101577952299 3.9685026299204984 4.762203155904598
207 1 2.381101577952299 3.1748021039363987 5.555903681888697
208 1 1.5874010519681994 3.9685026299204984 5.555903681888697
209 1 1.5874010519681994 3.1748021039363987 6.3496042078727974
210 1 2.381101577952299 3.9685026299204984 6.3496042078727974
211 1 2.381101577952299 3.1748021039363987 7.143304733856898
212 1 1.5874010519681994 3.9685026299204984 7.143304733856898
213 1 1.5874010519681994 3.1748021039363987 7.937005259840997
214 1 2.381101577952299 3.9685026299204984 7.937005259840997
215 1 2.381101577952299 3.1748021039363987 8.730705785825096
216 1 1.5874010519681994 3.9685026299204984 8.730705785825096
217 1 1.5874010519681994 4.762203155904598 0.0
218 1 2.381101577952299 5.555903681888697 0.0
219 1 2.381101577952299 4.762203155904598 0.7937005259840997
220 1 1.5874010519681994 5.555903681888697 0.7937005259840997
221 1 1.5874010519681994 4.762203155904598 1.5874010519681994
222 1 2.381101577952299 5.555903681888697 1.5874010519681994
223 1 2.381101577952299 4.762203155904598 2.381101577952299
224 1 1.5874010519681994 5.555903681888697 2.381101577952299
225 1 1.5874010519681994 4.762203155904598 3.1748021039363987
226 1 2.381101577952299 5.555903681888697 3.1748021039363987
227 1 2.381101577952299 4.762203155904598 3.9685026299204984
228 1 1.5874010519681994 5.555903681888697 3.9685026299204984
229 1 1.5874010519681994 4.762203155904598 4.762203155904598
230 1 2.381101577952299 5.555903681888697 4.762203155904598
231 1 2.381101577952299 4.762203155904598 5.555903681888697
232 1 1.5874010519681994 5.555903681888697 5.555903681888697
233 1 1.5874010519681994 4.762203155904598 6.3496042078727974
234 1 2.381101577952299 5.555903681888697 6.3496042078727974
235 1 2.381101577952299 4.762203155904598 7.143304733856898
236 1 1.5874010519681994 5.555903681888697 7.143304733856898
237 1 1.5874010519681994 4.762203155904598 7.937005259840997
238 1 2.381101577952299 5.555903681888697 7.937005259840997
239 1 2.381101577952299 4.762203155904598 8.730705785825096
240 1 1.5874010519681994 5.555903681888697 8.730705785825096
241 1 1.5874010519681994 6.3496042078727974 0.0
242 1 2.381101577952299 7.143304733856898 0.0
243 1 2.381101577952299 6.3496042078727974 0.7937005259840997
244 1 1.5874010519681994 7.143304733856898 0.7937005259840997
245 1 1.5874010519681994 6.3496042078727974 1.5874010519681994
246 1 2.381101577952299 7.143304733856898 1.5874010519681994
247 1 2.381101577952299 6.3496042078727974 2.381101577952299
248 1 1.5874010519681994 7.143304733856898 2.381101577952299
249 1 1.5874010519681994 6.3496042078727974 3.1748021039363987
250 1 2.381101577952299 7.143304733856898 3.1748021039363987
251 1 2.381101577952299 6.3496042078727974 3.9685026299204984
252 1 1.5874010519681994 7.143304733856898 3.9685026299204984
253 1 1.5874010519681994 6.3496042078727974 4.762203155904598
254 1 2.381101577952299 7.143304733856898 4.762203155904598
255 1 2.381101577952299 6.3496042078727974 5.555903681888697
256 1 1.5874010519681994 7.143304733856898 5.555903681888697
257 1 1.5874010519681994 6.3496042078727974 6.3496042078727974
258 1 2.381101577952299 7.143304733856898 6.3496042078727974
259 1 2.381101577952299 6.3496042078727974 7.143304733856898
260 1 1.5874010519681994 7.143304733856898 7.143304733856898
261 1 1.5874010519681994 6.3496042078727974 7.937005259840997
262 1 2.381101577952299 7.143304733856898 7.937005259840997
263 1 2.381101577952299 6.3496042078727974 8.730705785825096
264 1 1.5874010519681994 7.143304733856898 8.730705785825096
265 1 1.5874010519681994 7.937005259840997 0.0
266 1 2.381101577952299 8.730705785825096 0.0
267 1 2.381101577952299 7.937005259840997 0.7937005259840997
268 1 1.5874010519681994 8.730705785825096 0.7937005259840997
269 1 1.5874010519681994 7.937005259840997 1.5874010519681994
270 1 2.381101577952299 8.730705785825096 1.5874010519681994
271 1 2.381101577952299 7.937005259840997 2.381101577952299
272 1 1.5874010519681994 8.730705785825096 2.381101577952299
273 1 1.5874010519681994 7.937005259840997 3.1748021039363987
274 1 2.381101577952299 8.730705785825096 3.1748021039363987
275 1 2.381101577952299 7.937005259840997 3.9685026299204984
276 1 1.5874010519681994 8.730705785825096 3.9685026299204984
277 1 1.5874010519681994 7.937005259840997 4.762203155904598
278 1 2.381101577952299 8.730705785825096 4.762203155904598
279 1 2.381101577952299 7.937005259840997 5.555903681888697
280 1 1.5874010519681994 8.730705785825096 5.555903681888697
281 1 1.5874010519681994 7.937005259840997 6.3496042078727974
282 1 2.381101577952299 8.730705785825096 6.3496042078727974
283 1 2.381101577952299 7.937005259840997 7.143304733856898
284 1 1.5874010519681994 8.730705785825096 7.143304733856898
285 1 1.5874010519681994 7.937005259840997 7.937005259840997
286 1 2.381101577952299 8.730705785825096 7.937005259840997
287 1 2.381101577952299 7.937005259840997 8.730705785825096
288 1 1.5874010519681994 8.730705785825096 8.730705785825096
289 1 3.1748021039363987 0.0 0.0
290 1 3.9685026299204984 0.7937005259840997 0.0
291 1 3.9685026299204984 0.0 0.7937005259840997
292 1 3.1748021039363987 0.7937005259840997 0.7937005259840997
293 1 3.1748021039363987 0.0 1.5874010519681994
294 1 3.9685026299204984 0.7937005259840997 1.5874010519681994
295 1 3.9685026299204984 0.0 2.381101577952299
296 1 3.1748021039363987 0.7937005259840997 2.381101577952299
297 1 3.1748021039363987 0.0 3.1748021039363987
298 1 3.9685026299204984 0.7937005259840997 3.1748021039363987
299 1 3.9685026299204984 0.0 3.9685026299204984
300 1 3.1748021039363987 0.7937005259840997 3.9685026299204984
301 1 3.1748021039363987 0.0 4.762203155904598
302 1 3.9685026299204984 0.7937005259840997 4.762203155904598
303 1 3.9685026299204984 0.0 5.555903681888697
304 1 3.1748021039363987 0.7937005259840997 5.555903681888697
305 1 3.1748021039363987 0.0 6.3496042078727974
306 1 3.9685026299204984 0.7937005259840997 6.3496042078727974
307 1 3.9685026299204984 0.0 7.143304733856898
308 1 3.1748021039363987 0.7937005259840997 7.143304733856898
309 1 3.1748021039363987 0.0 7.937005259840997
310 1 3.9685026299204984 0.7937005259840997 7.937005259840997
311 1 3.9685026299204984 0.0 8.730705785825096
312 1 3.1748021039363987 0.7937005259840997 8.730705785825096
313 1 3.1748021039363987 1.5874010519681994 0.0
314 1 3.9685026299204984 2.381101577952299 0.0
315 1 3.9685026299204984 1.5874010519681994 0.7937005259840997
316 1 3.1748021039363987 2.381101577952299 0.7937005259840997
317 1 3.1748021039363987 1.5874010519681994 1.5874010519681994
318 1 3.9685026299204984 2.381101577952299 1.5874010519681994
319 1 3.9685026299204984 1.5874010519681994 2.381101577952299
320 1 3.1748021039363987 2.381101577952299 2.381101577952299
321 1 3.1748021039363987 1.5874010519681994 3.1748021039363987
322 1 3.9685026299204984 2.381101577952299 3.1748021039363987
323 1 3.9685026299204984 1.5874010519681994 3.9685026299204984
324 1 3.1748021039363987 2.381101577952299 3.9685026299204984
325 1 3.1748021039363987 1.5874010519681994 4.762203155904598
326 1 3.9685026299204984 2.381101577952299 4.762203155904598
327 1 3.9685026299204984 1.5874010519681994 5.555903681888697
328 1 3.1748021039363987 2.381101577952299 5.555903681888697
329 1 3.1748021039363987 1.5874010519681994 6.3496042078727974
330 1 3.9685026299204984 2.381101577952299 6.3496042078727974
331 1 3.9685026299204984 1.5874010519681994 7.143304733856898
332 1 3.1748021039363987 2.381101577952299 7.143304733856898
333 1 3.1748021039363987 1.5874010519681994 7.937005259840997
334 1 3.9685026299204984 2.381101577952299 7.937005259840997
335 1 3.9685026299204984 1.5874010519681994 8.730705785825096
336 1 3.1748021039363987 2.381101577952299 8.730705785825096
337 1 3.1748021039363987 3.1748021039363987 0.0
338 1 3.9685026299204984 3.9685026299204984 0.0
339 1 3.9685026299204984 3.1748021039363987 0.7937005259840997
340 1 3.1748021039363987 3.9685026299204984 0.7937005259840997
341 1 3.1748021039363987 3.1748021039363987 1.5874010519681994
342 1 3.9685026299204984 3.9685026299204984 1.5874010519681994
343 1 3.9685026299204984 3.1748021039363987 2.381101577952299
344 1 3.1748021039363987 3.9685026299204984 2.381101577952299
345 1 3.1748021039363987 3.1748021039363987 3.1748021039363987
346 1 3.9685026299204984 3.9685026299204984 3.1748021039363987
347 1 3.9685026299204984 3.1748021039363987 3.9685026299204984
348 1 3.1748021039363987 3.9685026299204984 3.9685026299204984
349 1 3.1748021039363987 3.1748021039363987 4.762203155904598
350 1 3.9685026299204984 3.9685026299204984 4.762203155904598
351 1 3.9685026299204984 3.1748021039363987 5.555903681888697
352 1 3.1748021039363987 3.9685026299204984 5.555903681888697
353 1 3.1748021039363987 3.1748021039363987 6.3496042078727974
354 1 3.9685026299204984 3.9685026299204984 6.3496042078727974
355 1 3.9685026299204984 3.1748021039363987 7.143304733856898
356 1 3.1748021039363987 3.9685026299204984 7.143304733856898
357 1 3.1748021039363987 3.1748021039363987 7.937005259840997
358 1 3.9685026299204984 3.9685026299204984 7.937005259840997
359 1 3.9685026299204984 3.1748021039363987 8.730705785825096
360 1 3.1748021039363987 3.9685026299204984 8.730705785825096
361 1 3.1748021039363987 4.762203155904598 0.0
362 1 3.9685026299204984 5.555903681888697 0.0
363 1 3.9685026299204984 4.762203155904598 0.7937005259840997
364 1 3.1748021039363987 5.555903681888697 0.7937005259840997
365 1 3.1748021039363987 4.762203155904598 1.5874010519681994
366 1 3.9685026299204984 5.555903681888697 1.5874010519681994
367 1 3.9685026299204984 4.762203155904598 2.381101577952299
368 1 3.1748021039363987 5.555903681888697 2.381101577952299
369 1 3.1748021039363987 4.762203155904598 3.1748021039363987
370 1 3.9685026299204984 5.555903681888697 3.1748021039363987
371 1 3.9685026299204984 4.762203155904598 3.9685026299204984
372 1 3.1748021039363987 5.555903681888697 3.9685026299204984
373 1 3.1748021039363987 4.762203155904598 4.762203155904598
374 1 3.9685026299204984 5.555903681888697 4.762203155904598
375 1 3.9685026299204984 4.762203155904598 5.555903681888697
376 1 3.1748021039363987 5.555903681888697 5.555903681888697
377 1 3.1748021039363987 4.762203155904598 6.3496042078727974
378 1 3.9685026299204984 5.555903681888697 6.3496042078727974
379 1 3.9685026299204984 4.762203155904598 7.143304733856898
380 1 3.1748021039363987 5.555903681888697 7.143304733856898
381 1 3.1748021039363987 4.762203155904598 7.937005259840997
382 1 3.9685026299204984 5.555903681888697 7.937005259840997
383 1 3.9685026299204984 4.762203155904598 8.730705785825096
384 1 3.1748021039363987 5.555903681888697 8.730705785825096
385 1 3.1748021039363987 6.3496042078727974 0.0
386 1 3.9685026299204984 7.143304733856898 0.0
387 1 3.9685026299204984 6.3496042078727974 0.7937005259840997
388 1 3.1748021039363987 7.143304733856898 0.7937005259840997
389 1 3.1748021039363987 6.3496042078727974 1.5874010519681994
390 1 3.9685026299204984 7.143304733856898 1.5874010519681994
391 1 3.9685026299204984 6.3496042078727974 2.381101577952299
392 1 3.1748021039363987 7.143304733856898 2.381101577952299
393 1 3.1748021039363987 6.3496042078727974 3.1748021039363987
394 1 3.9685026299204984 7.143304733856898 3.1748021039363987
395 1 3.9685026299204984 6.3496042078727974 3.9685026299204984
396 1 3.1748021039363987 7.143304733856898 3.9685026299204984
397 1 3.1748021039363987 6.3496042078727974 4.762203155904598
398 1 3.9685026299204984 7.143304733856898 4.762203155904598
399 1 3.9685026299204984 6.3496042078727974 5.555903681888697
400 1 3.1748021039363987 7.143304733856898 5.555903681888697
401 1 3.1748021039363987 6.3496042078727974 6.3496042078727974
402 1 3.9685026299204984 7.143304733856898 6.3496042078727974
403 1 3.9685026299204984 6.3496042078727974 7.143304733856898
404 1 3.1748021039363987 7.143304733856898 7.143304733856898
405 1 3.1748021039363987 6.3496042078727974 7.937005259840997
406 1 3.9685026299204984 7.143304733856898 7.937005259840997
407 1 3.9685026299204984 6.3496042078727974 8.730705785825096
408 1 3.1748021039363987 7.143304733856898 8.730705785825096
409 1 3.1748021039363987 7.937005259840997 0.0
410 1 3.9685026299204984 8.730705785825096 0.0
411 1 3.9685026299204984 7.937005259840997 0.7937005259840997
412 1 3.1748021039363987 8.730705785825096 0.7937005259840997
413 1 3.1748021039363987 7.937005259840997 1.5874010519681994
414 1 3.9685026299204984 8.730705785825096 1.5874010519681994
415 1 3.9685026299204984 7.937005259840997 2.381101577952299
416 1 3.1748021039363987 8.730705785825096 2.381101577952299
417 1 3.1748021039363987 7.937005259840997 3.1748021039363987
418 1 3.9685026299204984 8.730705785825096 3.1748021039363987
419 1 3.9685026299204984 7.937005259840997 3.9685026299204984
420 1 3.1748021039363987 8.730705785825096 3.9685026299204984
421 1 3.1748021039363987 7.937005259840997 4.762203155904598
422 1 3.9685026299204984 8.730705785825096 4.762203155904598
423 1 3.9685026299204984 7.937005259840997 5.555903681888697
424 1 3.1748021039363987 8.730705785825096 5.555903681888697
425 1 3.1748021039363987 7.937005259840997 6.3496042078727974
426 1 3.9685026299204984 8.730705785825096 6.3496042078727974
427 1 3.9685026299204984 7.937005259840997 7.143304733856898
428 1 3.1748021039363987 8.730705785825096 7.143304733856898
429 1 3.1748021039363987 7.937005259840997 7.937005259840997
430 1 3.9685026299204984 8.730705785825096 7.937005259840997
431 1 3.9685026299204984 7.937005259840997 8.730705785825096
432 1 3.1748021039363987 8.730705785825096 8.730705785825096
433 1 4.762203155904598 0.0 0.0
434 1 5.555903681888697 0.7937005259840997 0.0
435 1 5.555903681888697 0.0 0.7937005259840997
436 1 4.762203155904598 0.7937005259840997 0.7937005259840997
437 1 4.762203155904598 0.0 1.5874010519681994
438 1 5.555903681888697 0.7937005259840997 1.5874010519681994
439 1 5.555903681888697 0.0 2.381101577952299
440 1 4.762203155904598 0.7937005259840997 2.381101577952299
441 1 4.762203155904598 0.0 3.1748021039363987
442 1 5.555903681888697 0.7937005259840997 3.1748021039363987
443 1 5.555903681888697 0.0 3.9685026299204984
444 1 4.762203155904598 0.7937005259840997 3.9685026299204984
445 1 4.762203155904598 0.0 4.762203155904598
446 1 5.555903681888697 0.7937005259840997 4.762203155904598
447 1 5.555903681888697 0.0 5.555903681888697
448 1 4.762203155904598 0.7937005259840997 5.555903681888697
449 1 4.762203155904598 0.0 6.3496042078727974
450 1 5.555903681888697 0.7937005259840997 6.3496042078727974
451 1 5.555903681888697 0.0 7.143304733856898
452 1 4.762203155904598 0.7937005259840997 7.143304733856898
453 1 4.762203155904598 0.0 7.937005259840997
454 1 5.555903681888697 0.7937005259840997 7.937005259840997
455 1 5.555903681888697 0.0 8.730705785825096
456 1 4.762203155904598 0.7937005259840997 8.730705785825096
457 1 4.762203155904598 1.5874010519681994 0.0
458 1 5.555903681888697 2.381101577952299 0.0
459 1 5.555903681888697 1.5874010519681994 0.7937005259840997
460 1 4.762203155904598 2.381101577952299 0.7937005259840997
461 1 4.762203155904598 1.5874010519681994 1.5874010519681994
462 1 5.555903681888697 2.381101577952299 1.5874010519681994
463 1 5.555903681888697 1.5874010519681994 2.381101577952299
464 1 4.762203155904598 2.381101577952299 2.381101577952299
465 1 4.762203155904598 1.5874010519681994 3.1748021039363987
466 1 5.555903681888697 2.381101577952299 3.1748021039363987
467 1 5.555903681888697 1.5874010519681994 3.9685026299204984
468 1 4.762203155904598 2.381101577952299 3.9685026299204984
469 1 4.762203155904598 1.5874010519681994 4.762203155904598
470 1 5.555903681888697 2.381101577952299 4.762203155904598
471 1 5.555903681888697 1.5874010519681994 5.555903681888697
472 1 4.762203155904598 2.381101577952299 5.555903681888697
473 1 4.762203155904598 1.5874010519681994 6.3496042078727974
474 1 5.555903681888697 2.381101577952299 6.3496042078727974
475 1 5.555903681888697 1.5874010519681994 7.143304733856898
476 1 4.762203155904598 2.381101577952299 7.143304733856898
477 1 4.762203155904598 1.5874010519681994 7.937005259840997
478 1 5.555903681888697 2.381101577952299 7.937005259840997
479 1 5.555903681888697 1.5874010519681994 8.730705785825096
480 1 4.762203155904598 2.381101577952299 8.730705785825096
481 1 4.762203155904598 3.1748021039363987 0.0
482 1 5.555903681888697 3.9685026299204984 0.0
483 1 5.555903681888697 3.1748021039363987 0.7937005259840997
484 1 4.762203155904598 3.9685026299204984 0.7937005259840997
485 1 4.762203155904598 3.1748021039363987 1.5874010519681994
486 1 5.555903681888697 3.9685026299204984 1.5874010519681994
487 1 5.555903681888697 3.1748021039363987 2.381101577952299
488 1 4.762203155904598 3.9685026299204984 2.381101577952299
489 1 4.762203155904598 3.1748021039363987 3.1748021039363987
490 1 5.555903681888697 3.9685026299204984 3.1748021039363987
491 1 5.555903681888697 3.1748021039363987 3.9685026299204984
492 1 4.762203155904598 3.9685026299204984 3.9685026299204984
493 1 4.762203155904598 3.1748021039363987 4.762203155904598
494 1 5.555903681888697 3.9685026299204984 4.762203155904598
495 1 5.555903681888697 3.1748021039363987 5.555903681888697
496 1 4.762203155904598 3.9685026299204984 5.555903681888697
497 1 4.762203155904598 3.1748021039363987 6.3496042078727974
498 1 5.555903681888697 3.9685026299204984 6.3496042078727974
499 1 5.555903681888697 3.1748021039363987 7.143304733856898
500 1 4.762203155904598 3.9685026299204984 7.143304733856898
501 1 4.762203155904598 3.1748021039363987 7.937005259840997
502 1 5.555903681888697 3.9685026299204984 7.937005259840997
503 1 5.555903681888697 3.1748021039363987 8.730705785825096
504 1 4.762203155904598 3.9685026299204984 8.730705785825096
505 1 4.762203155904598 4.762203155904598 0.0
506 1 5.555903681888697 5.555903681888697 0.0
507 1 5.555903681888697 4.762203155904598 0.7937005259840997
508 1 4.762203155904598 5.555903681888697 0.7937005259840997
509 1 4.762203155904598 4.762203155904598 1.5874010519681994
510 1 5.555903681888697 5.555903681888697 1.5874010519681994
511 1 5.555903681888697 4.762203155904598 2.381101577952299
512 1 4.762203155904598 5.555903681888697 2.381101577952299
513 1 4.762203155904598 4.762203155904598 3.1748021039363987
514 1 5.555903681888697 5.555903681888697 3.1748021039363987
515 1 5.555903681888697 4.762203155904598 3.9685026299204984
516 1 4.762203155904598 5.555903681888697 3.9685026299204984
517 1 4.762203155904598 4.762203155904598 4.762203155904598
518 1 5.555903681888697 5.555903681888697 4.762203155904598
519 1 5.555903681888697 4.762203155904598 5.555903681888697
520 1 4.762203155904598 5.555903681888697 5.555903681888697
521 1 4.762203155904598 4.762203155904598 6.3496042078727974
522 1 5.555903681888697 5.555903681888697 6.3496042078727974
523 1 5.555903681888697 4.762203155904598 7.143304733856898
524 1 4.762203155904598 5.555903681888697 7.143304733856898
525 1 4.762203155904598 4.762203155904598 7.937005259840997