Position Data

16384 atoms
1 atom types

0.0 50.79683366298237 xlo xhi
0.0 25.398416831491186 ylo yhi
0.0 25.398416831491186 zlo zhi

Atoms

1 1 0.0 0.0 0.0
2 1 0.7937005259840996 0.7937005259840996 0.0
3 1 0.7937005259840996 0.0 0.7937005259840996
4 1 0.0 0.7937005259840996 0.7937005259840996
5 1 0.0 0.0 1.5874010519681991
6 1 0.7937005259840996 0.7937005259840996 1.5874010519681991
7 1 0.7937005259840996 0.0 2.3811015779522986
8 1 0.0 0.7937005259840996 2.3811015779522986
9 1 0.0 0.0 3.1748021039363983
10 1 0.7937005259840996 0.7937005259840996 3.1748021039363983
11 1 0.7937005259840996 0.0 3.968502629920498
12 1 0.0 0.7937005259840996 3.968502629920498
13 1 0.0 0.0 4.762203155904597
14 1 0.7937005259840996 0.7937005259840996 4.762203155904597
15 1 0.7937005259840996 0.0 5.555903681888696
16 1 0.0 0.7937005259840996 5.555903681888696
17 1 0.0 0.0 6.349604207872797
18 1 0.7937005259840996 0.7937005259840996 6.349604207872797
19 1 0.7937005259840996 0.0 7.143304733856896
20 1 0.0 0.7937005259840996 7.143304733856896
21 1 0.0 0.0 7.937005259840996
22 1 0.7937005259840996 0.7937005259840996 7.937005259840996
23 1 0.7937005259840996 0.0 8.730705785825096
24 1 0.0 0.7937005259840996 8.730705785825096
25 1 0.0 0.0 9.524406311809194
26 1 0.7937005259840996 0.7937005259840996 9.524406311809194
27 1 0.7937005259840996 0.0 10.318106837793295
28 1 0.0 0.7937005259840996 10.318106837793295
29 1 0.0 0.0 11.111807363777395
30 1 0.7937005259840996 0.7937005259840996 11.111807363777395
31 1 0.7937005259840996 0.0 11.905507889761495
32 1 0.0 0.7937005259840996 11.905507889761495
33 1 0.0 0.0 12.699208415745593
34 1 0.7937005259840996 0.7937005259840996 12.699208415745593
35 1 0.7937005259840996 0.0 13.492908941729693
36 1 0.0 0.7937005259840996 13.492908941729693
37 1 0.0 0.0 14.286609467713792
38 1 0.7937005259840996 0.7937005259840996 14.286609467713792
39 1 0.7937005259840996 0.0 15.080309993697892
40 1 0.0 0.7937005259840996 15.080309993697892
41 1 0.0 0.0 15.874010519681992
42 1 0.7937005259840996 0.7937005259840996 15.874010519681992
43 1 0.7937005259840996 0.0 16.667711045666092
44 1 0.0 0.7937005259840996 16.667711045666092
45 1 0.0 0.0 17.461411571650192
46 1 0.7937005259840996 0.7937005259840996 17.461411571650192
47 1 0.7937005259840996 0.0 18.255112097634292
48 1 0.0 0.7937005259840996 18.255112097634292
49 1 0.0 0.0 19.04881262361839
50 1 0.7937005259840996 0.7937005259840996 19.04881262361839
51 1 0.7937005259840996 0.0 19.84251314960249
52 1 0.0 0.7937005259840996 19.84251314960249
53 1 0.0 0.0 20.63621367558659
54 1 0.7937005259840996 0.7937005259840996 20.63621367558659
55 1 0.7937005259840996 0.0 21.42991420157069
56 1 0.0 0.7937005259840996 21.42991420157069
57 1 0.0 0.0 22.22361472755479
58 1 0.7937005259840996 0.7937005259840996 22.22361472755479
59 1 0.7937005259840996 0.0 23.01731525353889
60 1 0.0 0.7937005259840996 23.01731525353889
61 1 0.0 0.0 23.811015779522986
62 1 0.7937005259840996 0.7937005259840996 23.811015779522986
63 1 0.7937005259840996 0.0 24.604716305507086
64 1 0.0 0.7937005259840996 24.604716305507086
65 1 0.0 1.5874010519681991 0.0
66 1 0.7937005259840996 2.3811015779522986 0.0
67 1 0.7937005259840996 1.5874010519681991 0.7937005259840996
68 1 0.0 2.3811015779522986 0.7937005259840996
69 1 0.0 1.5874010519681991 1.5874010519681991
70 1 0.7937005259840996 2.3811015779522986 1.5874010519681991
71 1 0.7937005259840996 1.5874010519681991 2.3811015779522986
72 1 0.0 2.3811015779522986 2.3811015779522986
73 1 0.0 1.5874010519681991 3.1748021039363983
74 1 0.7937005259840996 2.3811015779522986 3.1748021039363983
75 1 0.7937005259840996 1.5874010519681991 3.968502629920498
76 1 0.0 2.3811015779522986 3.968502629920498
77 1 0.0 1.5874010519681991 4.762203155904597
78 1 0.7937005259840996 2.3811015779522986 4.762203155904597
79 1 0.7937005259840996 1.5874010519681991 5.555903681888696
80 1 0.0 2.3811015779522986 5.555903681888696
81 1 0.0 1.5874010519681991 6.349604207872797
82 1 0.7937005259840996 2.3811015779522986 6.349604207872797
83 1 0.7937005259840996 1.5874010519681991 7.143304733856896
84 1 0.0 2.3811015779522986 7.143304733856896
85 1 0.0 1.5874010519681991 7.937005259840996
86 1 0.7937005259840996 2.3811015779522986 7.937005259840996
87 1 0.7937005259840996 1.5874010519681991 8.730705785825096
88 1 0.0 2.3811015779522986 8.730705785825096
89 1 0.0 1.5874010519681991 9.524406311809194
90 1 0.7937005259840996 2.3811015779522986 9.524406311809194
91 1 0.7937005259840996 1.5874010519681991 10.318106837793295
92 1 0.0 2.3811015779522986 10.318106837793295
93 1 0.0 1.5874010519681991 11.111807363777395
94 1 0.7937005259840996 2.3811015779522986 11.111807363777395
95 1 0.7937005259840996 1.5874010519681991 11.905507889761495
96 1 0.0 2.3811015779522986 11.905507889761495
97 1 0.0 1.5874010519681991 12.699208415745593
98 1 0.7937005259840996 2.3811015779522986 12.699208415745593
99 1 0.7937005259840996 1.5874010519681991 13.492908941729693
100 1 0.0 2.3811015779522986 13.492908941729693
101 1 0.0 1.5874010519681991 14.286609467713792
102 1 0.7937005259840996 2.3811015779522986 14.286609467713792
103 1 0.7937005259840996 1.5874010519681991 15.080309993697892
104 1 0.0 2.3811015779522986 15.080309993697892
105 1 0.0 1.5874010519681991 15.874010519681992
106 1 0.7937005259840996 2.3811015779522986 15.874010519681992
107 1 0.7937005259840996 1.5874010519681991 16.667711045666092
108 1 0.0 2.3811015779522986 16.667711045666092
109 1 0.0 1.5874010519681991 17.461411571650192
110 1 0.7937005259840996 2.3811015779522986 17.461411571650192
111 1 0.7937005259840996 1.5874010519681991 18.255112097634292
112 1 0.0 2.3811015779522986 18.255112097634292
113 1 0.0 1.5874010519681991 19.04881262361839
114 1 0.7937005259840996 2.3811015779522986 19.04881262361839
115 1 0.7937005259840996 1.5874010519681991 19.84251314960249
116 1 0.0 2.3811015779522986 19.84251314960249
117 1 0.0 1.5874010519681991 20.63621367558659
118 1 0.7937005259840996 2.3811015779522986 20.63621367558659
119 1 0.7937005259840996 1.5874010519681991 21.42991420157069
120 1 0.0 2.3811015779522986 21.42991420157069
121 1 0.0 1.5874010519681991 22.22361472755479
122 1 0.7937005259840996 2.3811015779522986 22.22361472755479
123 1 0.7937005259840996 1.5874010519681991 23.01731525353889
124 1 0.0 2.3811015779522986 23.01731525353889
125 1 0.0 1.5874010519681991 23.811015779522986
126 1 0.7937005259840996 2.3811015779522986 23.811015779522986
127 1 0.7937005259840996 1.5874010519681991 24.604716305507086
128 1 0.0 2.3811015779522986 24.604716305507086
129 1 0.0 3.1748021039363983 0.0
130 1 0.7937005259840996 3.968502629920498 0.0
131 1 0.7937005259840996 3.1748021039363983 0.7937005259840996
132 1 0.0 3.968502629920498 0.7937005259840996
133 1 0.0 3.1748021039363983 1.5874010519681991
134 1 0.7937005259840996 3.968502629920498 1.5874010519681991
135 1 0.7937005259840996 3.1748021039363983 2.3811015779522986
136 1 0.0 3.968502629920498 2.3811015779522986
137 1 0.0 3.1748021039363983 3.1748021039363983
138 1 0.7937005259840996 3.968502629920498 3.1748021039363983
139 1 0.7937005259840996 3.1748021039363983 3.968502629920498
140 1 0.0 3.968502629920498 3.968502629920498
141 1 0.0 3.1748021039363983 4.762203155904597
142 1 0.7937005259840996 3.968502629920498 4.762203155904597
143 1 0.7937005259840996 3.1748021039363983 5.555903681888696
144 1 0.0 3.968502629920498 5.555903681888696
145 1 0.0 3.1748021039363983 6.349604207872797
146 1 0.7937005259840996 3.968502629920498 6.349604207872797
147 1 0.7937005259840996 3.1748021039363983 7.143304733856896
148 1 0.0 3.968502629920498 7.143304733856896
149 1 0.0 3.1748021039363983 7.937005259840996
150 1 0.7937005259840996 3.968502629920498 7.937005259840996
151 1 0.7937005259840996 3.1748021039363983 8.730705785825096
152 1 0.0 3.968502629920498 8.730705785825096
153 1 0.0 3.1748021039363983 9.524406311809194
154 1 0.7937005259840996 3.968502629920498 9.524406311809194
155 1 0.7937005259840996 3.1748021039363983 10.318106837793295
156 1 0.0 3.968502629920498 10.318106837793295
157 1 0.0 3.1748021039363983 11.111807363777395
158 1 0.7937005259840996 3.968502629920498 11.111807363777395
159 1 0.7937005259840996 3.1748021039363983 11.905507889761495
160 1 0.0 3.968502629920498 11.905507889761495
161 1 0.0 3.1748021039363983 12.699208415745593
162 1 0.7937005259840996 3.968502629920498 12.699208415745593
163 1 0.7937005259840996 3.1748021039363983 13.492908941729693
164 1 0.0 3.968502629920498 13.492908941729693
165 1 0.0 3.1748021039363983 14.286609467713792
166 1 0.7937005259840996 3.968502629920498 14.286609467713792
167 1 0.7937005259840996 3.1748021039363983 15.080309993697892
168 1 0.0 3.968502629920498 15.080309993697892
169 1 0.0 3.1748021039363983 15.874010519681992
170 1 0.7937005259840996 3.968502629920498 15.874010519681992
171 1 0.7937005259840996 3.1748021039363983 16.667711045666092
172 1 0.0 3.968502629920498 16.667711045666092
173 1 0.0 3.1748021039363983 17.461411571650192
174 1 0.7937005259840996 3.968502629920498 17.461411571650192
175 1 0.7937005259840996 3.1748021039363983 18.255112097634292
176 1 0.0 3.968502629920498 18.255112097634292
177 1 0.0 3.1748021039363983 19.04881262361839
178 1 0.7937005259840996 3.968502629920498 19.04881262361839
179 1 0.7937005259840996 3.1748021039363983 19.84251314960249
180 1 0.0 3.968502629920498 19.84251314960249
181 1 0.0 3.1748021039363983 20.63621367558659
182 1 0.7937005259840996 3.968502629920498 20.63621367558659
183 1 0.7937005259840996 3.1748021039363983 21.42991420157069
184 1 0.0 3.968502629920498 21.42991420157069
185 1 0.0 3.1748021039363983 22.22361472755479
186 1 0.7937005259840996 3.968502629920498 22.22361472755479
187 1 0.7937005259840996 3.1748021039363983 23.01731525353889
188 1 0.0 3.968502629920498 23.01731525353889
189 1 0.0 3.1748021039363983 23.811015779522986
190 1 0.7937005259840996 3.968502629920498 23.811015779522986
191 1 0.7937005259840996 3.1748021039363983 24.604716305507086
192 1 0.0 3.968502629920498 24.604716305507086
193 1 0.0 4.762203155904597 0.0
194 1 0.7937005259840996 5.555903681888696 0.0
195 1 0.7937005259840996 4.762203155904597 0.7937005259840996
196 1 0.0 5.555903681888696 0.7937005259840996
197 1 0.0 4.762203155904597 1.5874010519681991
198 1 0.7937005259840996 5.555903681888696 1.5874010519681991
199 1 0.7937005259840996 4.762203155904597 2.3811015779522986
200 1 0.0 5.555903681888696 2.3811015779522986
201 1 0.0 4.762203155904597 3.1748021039363983
202 1 0.7937005259840996 5.555903681888696 3.1748021039363983
203 1 0.7937005259840996 4.762203155904597 3.968502629920498
204 1 0.0 5.555903681888696 3.968502629920498
205 1 0.0 4.762203155904597 4.762203155904597
206 1 0.7937005259840996 5.555903681888696 4.762203155904597
207 1 0.7937005259840996 4.762203155904597 5.555903681888696
208 1 0.0 5.555903681888696 5.555903681888696
209 1 0.0 4.762203155904597 6.349604207872797
210 1 0.7937005259840996 5.555903681888696 6.349604207872797
211 1 0.7937005259840996 4.762203155904597 7.143304733856896
212 1 0.0 5.555903681888696 7.143304733856896
213 1 0.0 4.762203155904597 7.937005259840996
214 1 0.7937005259840996 5.555903681888696 7.937005259840996
215 1 0.7937005259840996 4.762203155904597 8.730705785825096
216 1 0.0 5.555903681888696 8.730705785825096
217 1 0.0 4.762203155904597 9.524406311809194
218 1 0.7937005259840996 5.555903681888696 9.524406311809194
219 1 0.7937005259840996 4.762203155904597 10.318106837793295
220 1 0.0 5.555903681888696 10.318106837793295
221 1 0.0 4.762203155904597 11.111807363777395
222 1 0.7937005259840996 5.555903681888696 11.111807363777395
223 1 0.7937005259840996 4.762203155904597 11.905507889761495
224 1 0.0 5.555903681888696 11.905507889761495
225 1 0.0 4.762203155904597 12.699208415745593
226 1 0.7937005259840996 5.555903681888696 12.699208415745593
227 1 0.7937005259840996 4.762203155904597 13.492908941729693
228 1 0.0 5.555903681888696 13.492908941729693
229 1 0.0 4.762203155904597 14.286609467713792
230 1 0.7937005259840996 5.555903681888696 14.286609467713792
231 1 0.7937005259840996 4.762203155904597 15.080309993697892
232 1 0.0 5.555903681888696 15.080309993697892
233 1 0.0 4.762203155904597 15.874010519681992
234 1 0.7937005259840996 5.555903681888696 15.874010519681992
235 1 0.7937005259840996 4.762203155904597 16.667711045666092
236 1 0.0 5.555903681888696 16.667711045666092
237 1 0.0 4.762203155904597 17.461411571650192
238 1 0.7937005259840996 5.555903681888696 17.461411571650192
239 1 0.7937005259840996 4.762203155904597 18.255112097634292
240 1 0.0 5.555903681888696 18.255112097634292
241 1 0.0 4.762203155904597 19.04881262361839
242 1 0.7937005259840996 5.555903681888696 19.04881262361839
243 1 0.7937005259840996 4.762203155904597 19.84251314960249
244 1 0.0 5.555903681888696 19.84251314960249
245 1 0.0 4.762203155904597 20.63621367558659
246 1 0.7937005259840996 5.555903681888696 20.63621367558659
247 1 0.7937005259840996 4.762203155904597 21.42991420157069
248 1 0.0 5.555903681888696 21.42991420157069
249 1 0.0 4.762203155904597 22.22361472755479
250 1 0.7937005259840996 5.555903681888696 22.22361472755479
251 1 0.7937005259840996 4.762203155904597 23.01731525353889
252 1 0.0 5.555903681888696 23.01731525353889
253 1 0.0 4.762203155904597 23.811015779522986
254 1 0.7937005259840996 5.555903681888696 23.811015779522986
255 1 0.7937005259840996 4.762203155904597 24.604716305507086
256 1 0.0 5.555903681888696 24.604716305507086
257 1 0.0 6.349604207872797 0.0
258 1 0.7937005259840996 7.143304733856896 0.0
259 1 0.7937005259840996 6.349604207872797 0.7937005259840996
260 1 0.0 7.143304733856896 0.7937005259840996
261 1 0.0 6.349604207872797 1.5874010519681991
262 1 0.7937005259840996 7.143304733856896 1.5874010519681991
263 1 0.7937005259840996 6.349604207872797 2.3811015779522986
264 1 0.0 7.143304733856896 2.3811015779522986
265 1 0.0 6.349604207872797 3.1748021039363983
266 1 0.7937005259840996 7.143304733856896 3.1748021039363983
267 1 0.7937005259840996 6.349604207872797 3.968502629920498
268 1 0.0 7.143304733856896 3.968502629920498
269 1 0.0 6.349604207872797 4.762203155904597
270 1 0.7937005259840996 7.143304733856896 4.762203155904597
271 1 0.7937005259840996 6.349604207872797 5.555903681888696
272 1 0.0 7.143304733856896 5.555903681888696
273 1 0.0 6.349604207872797 6.349604207872797
274 1 0.7937005259840996 7.143304733856896 6.349604207872797
275 1 0.7937005259840996 6.349604207872797 7.143304733856896
276 1 0.0 7.143304733856896 7.143304733856896
277 1 0.0 6.349604207872797 7.937005259840996
278 1 0.7937005259840996 7.143304733856896 7.937005259840996
279 1 0.7937005259840996 6.349604207872797 8.730705785825096
280 1 0.0 7.143304733856896 8.730705785825096
281 1 0.0 6.349604207872797 9.524406311809194
282 1 0.7937005259840996 7.143304733856896 9.524406311809194
283 1 0.7937005259840996 6.349604207872797 10.318106837793295
284 1 0.0 7.143304733856896 10.318106837793295
285 1 0.0 6.349604207872797 11.111807363777395
286 1 0.7937005259840996 7.143304733856896 11.111807363777395
287 1 0.7937005259840996 6.349604207872797 11.905507889761495
288 1 0.0 7.143304733856896 11.905507889761495
289 1 0.0 6.349604207872797 12.699208415745593
290 1 0.7937005259840996 7.143304733856896 12.699208415745593
291 1 0.7937005259840996 6.349604207872797 13.492908941729693
292 1 0.0 7.143304733856896 13.492908941729693
293 1 0.0 6.349604207872797 14.286609467713792
294 1 0.7937005259840996 7.143304733856896 14.286609467713792
295 1 0.7937005259840996 6.349604207872797 15.080309993697892
296 1 0.0 7.143304733856896 15.080309993697892
297 1 0.0 6.349604207872797 15.874010519681992
298 1 0.7937005259840996 7.143304733856896 15.874010519681992
299 1 0.7937005259840996 6.349604207872797 16.667711045666092
300 1 0.0 7.143304733856896 16.667711045666092
301 1 0.0 6.349604207872797 17.461411571650192
302 1 0.7937005259840996 7.143304733856896 17.461411571650192
303 1 0.7937005259840996 6.349604207872797 18.255112097634292
304 1 0.0 7.143304733856896 18.255112097634292
305 1 0.0 6.349604207872797 19.04881262361839
306 1 0.7937005259840996 7.143304733856896 19.04881262361839
307 1 0.7937005259840996 6.349604207872797 19.84251314960249
308 1 0.0 7.143304733856896 19.84251314960249
309 1 0.0 6.349604207872797 20.63621367558659
310 1 0.7937005259840996 7.143304733856896 20.63621367558659
311 1 0.7937005259840996 6.349604207872797 21.42991420157069
312 1 0.0 7.143304733856896 21.42991420157069
313 1 0.0 6.349604207872797 22.22361472755479
314 1 0.7937005259840996 7.143304733856896 22.22361472755479
315 1 0.7937005259840996 6.349604207872797 23.01731525353889
316 1 0.0 7.143304733856896 23.01731525353889
317 1 0.0 6.349604207872797 23.811015779522986
318 1 0.7937005259840996 7.143304733856896 23.811015779522986
319 1 0.7937005259840996 6.349604207872797 24.604716305507086
320 1 0.0 7.143304733856896 24.604716305507086
321 1 0.0 7.937005259840996 0.0
322 1 0.7937005259840996 8.730705785825096 0.0
323 1 0.7937005259840996 7.937005259840996 0.7937005259840996
324 1 0.0 8.730705785825096 0.7937005259840996
325 1 0.0 7.937005259840996 1.5874010519681991
326 1 0.7937005259840996 8.730705785825096 1.5874010519681991
327 1 0.7937005259840996 7.937005259840996 2.3811015779522986
328 1 0.0 8.730705785825096 2.3811015779522986
329 1 0.0 7.937005259840996 3.1748021039363983
330 1 0.7937005259840996 8.730705785825096 3.1748021039363983
331 1 0.7937005259840996 7.937005259840996 3.968502629920498
332 1 0.0 8.730705785825096 3.968502629920498
333 1 0.0 7.937005259840996 4.762203155904597
334 1 0.7937005259840996 8.730705785825096 4.762203155904597
335 1 0.7937005259840996 7.937005259840996 5.555903681888696
336 1 0.0 8.730705785825096 5.555903681888696
337 1 0.0 7.937005259840996 6.349604207872797
338 1 0.7937005259840996 8.730705785825096 6.349604207872797
339 1 0.7937005259840996 7.937005259840996 7.143304733856896
340 1 0.0 8.730705785825096 7.143304733856896
341 1 0.0 7.937005259840996 7.937005259840996
342 1 0.7937005259840996 8.730705785825096 7.937005259840996
343 1 0.7937005259840996 7.937005259840996 8.730705785825096
344 1 0.0 8.730705785825096 8.730705785825096
345 1 0.0 7.937005259840996 9.524406311809194
346 1 0.7937005259840996 8.730705785825096 9.524406311809194
347 1 0.7937005259840996 7.937005259840996 10.318106837793295
348 1 0.0 8.730705785825096 10.318106837793295
349 1 0.0 7.937005259840996 11.111807363777395
350 1 0.7937005259840996 8.730705785825096 11.111807363777395
351 1 0.7937005259840996 7.937005259840996 11.905507889761495
352 1 0.0 8.730705785825096 11.905507889761495
353 1 0.0 7.937005259840996 12.699208415745593
354 1 0.7937005259840996 8.730705785825096 12.699208415745593
355 1 0.7937005259840996 7.937005259840996 13.492908941729693
356 1 0.0 8.730705785825096 13.492908941729693
357 1 0.0 7.937005259840996 14.286609467713792
358 1 0.7937005259840996 8.730705785825096 14.286609467713792
359 1 0.7937005259840996 7.937005259840996 15.080309993697892
360 1 0.0 8.730705785825096 15.080309993697892
361 1 0.0 7.937005259840996 15.874010519681992
362 1 0.7937005259840996 8.730705785825096 15.874010519681992
363 1 0.7937005259840996 7.937005259840996 16.667711045666092
364 1 0.0 8.730705785825096 16.667711045666092
365 1 0.0 7.937005259840996 17.461411571650192
366 1 0.7937005259840996 8.730705785825096 17.461411571650192
367 1 0.7937005259840996 7.937005259840996 18.255112097634292
368 1 0.0 8.730705785825096 18.255112097634292
369 1 0.0 7.937005259840996 19.04881262361839
370 1 0.7937005259840996 8.730705785825096 19.04881262361839
371 1 0.7937005259840996 7.937005259840996 19.84251314960249
372 1 0.0 8.730705785825096 19.84251314960249
373 1 0.0 7.937005259840996 20.63621367558659
374 1 0.7937005259840996 8.730705785825096 20.63621367558659
375 1 0.7937005259840996 7.937005259840996 21.42991420157069
376 1 0.0 8.730705785825096 21.42991420157069
377 1 0.0 7.937005259840996 22.22361472755479
378 1 0.7937005259840996 8.730705785825096 22.22361472755479
379 1 0.7937005259840996 7.937005259840996 23.01731525353889
380 1 0.0 8.730705785825096 23.01731525353889
381 1 0.0 7.937005259840996 23.811015779522986
382 1 0.7937005259840996 8.730705785825096 23.811015779522986
383 1 0.7937005259840996 7.937005259840996 24.604716305507086
384 1 0.0 8.730705785825096 24.604716305507086
385 1 0.0 9.524406311809194 0.0
386 1 0.7937005259840996 10.318106837793295 0.0
387 1 0.7937005259840996 9.524406311809194 0.7937005259840996
388 1 0.0 10.318106837793295 0.7937005259840996
389 1 0.0 9.524406311809194 1.5874010519681991
390 1 0.7937005259840996 10.318106837793295 1.5874010519681991
391 1 0.7937005259840996 9.524406311809194 2.3811015779522986
392 1 0.0 10.318106837793295 2.3811015779522986
393 1 0.0 9.524406311809194 3.1748021039363983
394 1 0.7937005259840996 10.318106837793295 3.1748021039363983
395 1 0.7937005259840996 9.524406311809194 3.968502629920498
396 1 0.0 10.318106837793295 3.968502629920498
397 1 0.0 9.524406311809194 4.762203155904597
398 1 0.7937005259840996 10.318106837793295 4.762203155904597
399 1 0.7937005259840996 9.524406311809194 5.555903681888696
400 1 0.0 10.318106837793295 5.555903681888696
401 1 0.0 9.524406311809194 6.349604207872797
402 1 0.7937005259840996 10.318106837793295 6.349604207872797
403 1 0.7937005259840996 9.524406311809194 7.143304733856896
404 1 0.0 10.318106837793295 7.143304733856896
405 1 0.0 9.524406311809194 7.937005259840996
406 1 0.7937005259840996 10.318106837793295 7.937005259840996
407 1 0.7937005259840996 9.524406311809194 8.730705785825096
408 1 0.0 10.318106837793295 8.730705785825096
409 1 0.0 9.524406311809194 9.524406311809194
410 1 0.7937005259840996 10.318106837793295 9.524406311809194
411 1 0.7937005259840996 9.524406311809194 10.318106837793295
412 1 0.0 10.318106837793295 10.318106837793295
413 1 0.0 9.524406311809194 11.111807363777395
414 1 0.7937005259840996 10.318106837793295 11.111807363777395
415 1 0.7937005259840996 9.524406311809194 11.905507889761495
416 1 0.0 10.318106837793295 11.905507889761495
417 1 0.0 9.524406311809194 12.699208415745593
418 1 0.7937005259840996 10.318106837793295 12.699208415745593
419 1 0.7937005259840996 9.524406311809194 13.492908941729693
420 1 0.0 10.318106837793295 13.492908941729693
421 1 0.0 9.524406311809194 14.286609467713792
422 1 0.7937005259840996 10.318106837793295 14.286609467713792
423 1 0.7937005259840996 9.524406311809194 15.080309993697892
424 1 0.0 10.318106837793295 15.080309993697892
425 1 0.0 9.524406311809194 15.874010519681992
426 1 0.7937005259840996 10.318106837793295 15.874010519681992
427 1 0.7937005259840996 9.524406311809194 16.667711045666092
428 1 0.0 10.318106837793295 16.667711045666092
429 1 0.0 9.524406311809194 17.461411571650192
430 1 0.7937005259840996 10.318106837793295 17.461411571650192
431 1 0.7937005259840996 9.524406311809194 18.255112097634292
432 1 0.0 10.318106837793295 18.255112097634292
433 1 0.0 9.524406311809194 19.04881262361839
434 1 0.7937005259840996 10.318106837793295 19.04881262361839
435 1 0.7937005259840996 9.524406311809194 19.84251314960249
436 1 0.0 10.318106837793295 19.84251314960249
437 1 0.0 9.524406311809194 20.63621367558659
438 1 0.7937005259840996 10.318106837793295 20.63621367558659
439 1 0.7937005259840996 9.524406311809194 21.42991420157069
440 1 0.0 10.318106837793295 21.42991420157069
441 1 0.0 9.524406311809194 22.22361472755479
442 1 0.7937005259840996 10.318106837793295 22.22361472755479
443 1 0.7937005259840996 9.524406311809194 23.01731525353889
444 1 0.0 10.318106837793295 23.01731525353889
445 1 0.0 9.524406311809194 23.811015779522986
446 1 0.7937005259840996 10.318106837793295 23.811015779522986
447 1 0.7937005259840996 9.524406311809194 24.604716305507086
448 1 0.0 10.318106837793295 24.604716305507086
449 1 0.0 11.111807363777395 0.0
450 1 0.7937005259840996 11.905507889761495 0.0
451 1 0.7937005259840996 11.111807363777395 0.7937005259840996
452 1 0.0 11.905507889761495 0.7937005259840996
453 1 0.0 11.111807363777395 1.5874010519681991
454 1 0.7937005259840996 11.905507889761495 1.5874010519681991
455 1 0.7937005259840996 11.111807363777395 2.3811015779522986
456 1 0.0 11.905507889761495 2.3811015779522986
457 1 0.0 11.111807363777395 3.1748021039363983
458 1 0.7937005259840996 11.905507889761495 3.1748021039363983
459 1 0.7937005259840996 11.111807363777395 3.968502629920498
460 1 0.0 11.905507889761495 3.968502629920498
461 1 0.0 11.111807363777395 4.762203155904597
462 1 0.7937005259840996 11.905507889761495 4.762203155904597
463 1 0.7937005259840996 11.111807363777395 5.555903681888696
464 1 0.0 11.905507889761495 5.555903681888696
465 1 0.0 11.111807363777395 6.349604207872797
466 1 0.7937005259840996 11.905507889761495 6.349604207872797
467 1 0.7937005259840996 11.111807363777395 7.143304733856896
468 1 0.0 11.905507889761495 7.143304733856896
469 1 0.0 11.111807363777395 7.937005259840996
470 1 0.7937005259840996 11.905507889761495 7.937005259840996
471 1 0.7937005259840996 11.111807363777395 8.730705785825096
472 1 0.0 11.905507889761495 8.730705785825096
473 1 0.0 11.111807363777395 9.524406311809194
474 1 0.7937005259840996 11.905507889761495 9.524406311809194
475 1 0.7937005259840996 11.111807363777395 10.318106837793295
476 1 0.0 11.905507889761495 10.318106837793295
477 1 0.0 11.111807363777395 11.111807363777395
478 1 0.7937005259840996 11.905507889761495 11.111807363777395
479 1 0.7937005259840996 11.111807363777395 11.905507889761495
480 1 0.0 11.905507889761495 11.905507889761495
481 1 0.0 11.111807363777395 12.699208415745593
482 1 0.7937005259840996 11.905507889761495 12.699208415745593
483 1 0.7937005259840996 11.111807363777395 13.492908941729693
484 1 0.0 11.905507889761495 13.492908941729693
485 1 0.0 11.111807363777395 14.286609467713792
486 1 0.7937005259840996 11.905507889761495 14.286609467713792
487 1 0.7937005259840996 11.111807363777395 15.080309993697892
488 1 0.0 11.905507889761495 15.080309993697892
489 1 0.0 11.111807363777395 15.874010519681992
490 1 0.7937005259840996 11.905507889761495 15.874010519681992
491 1 0.7937005259840996 11.111807363777395 16.667711045666092
492 1 0.0 11.905507889761495 16.667711045666092
493 1 0.0 11.111807363777395 17.461411571650192
494 1 0.7937005259840996 11.905507889761495 17.461411571650192
495 1 0.7937005259840996 11.111807363777395 18.255112097634292
496 1 0.0 11.905507889761495 18.255112097634292
497 1 0.0 11.111807363777395 19.04881262361839
498 1 0.7937005259840996 11.905507889761495 19.04881262361839
499 1 0.7937005259840996 11.111807363777395 19.84251314960249
500 1 0.0 11.905507889761495 19.84251314960249
501 1 0.0 11.111807363777395 20.63621367558659
502 1 0.7937005259840996 11.905507889761495 20.63621367558659
503 1 0.7937005259840996 11.111807363777395 21.42991420157069
504 1 0.0 11.905507889761495 21.42991420157069
505 1 0.0 11.111807363777395 22.22361472755479
506 1 0.7937005259840996 11.905507889761495 22.22361472755479
507 1 0.7937005259840996 11.111807363777395 23.01731525353889
508 1 0.0 11.905507889761495 23.01731525353889
509 1 0.0 11.111807363777395 23.811015779522986
510 1 0.7937005259840996 11.905507889761495 23.811015779522986
511 1 0.7937005259840996 11.111807363777395 24.604716305507086
512 1 0.0 11.905507889761495 24.604716305507086
513 1 0.0 12.699208415745593 0.0
514 1 0.7937005259840996 13.492908941729693 0.0
515 1 0.7937005259840996 12.699208415745593 0.7937005259840996
516 1 0.0 13.492908941729693 0.7937005259840996
517 1 0.0 12.699208415745593 1.5874010519681991
518 1 0.7937005259840996 13.492908941729693 1.5874010519681991
519 1 0.7937005259840996 12.699208415745593 2.3811015779522986
520 1 0.0 13.492908941729693 2.3811015779522986
521 1 0.0 12.699208415745593 3.1748021039363983
522 1 0.7937005259840996 13.492908941729693 3.1748021039363983
523 1 0.7937005259840996 12.699208415745593 3.968502629920498
524 1 0.0 13.492908941729693 3.968502629920498
525 1 0.0 12.699208415745593 4.762203155904597
526 1 0.7937005259840996 13.492908941729693 4.762203155904597
527 1 0.7937005259840996 12.699208415745593 5.555903681888696
528 1 0.0 13.492908941729693 5.555903681888696
529 1 0.0 12.699208415745593 6.349604207872797
530 1 0.7937005259840996 13.492908941729693 6.349604207872797
531 1 0.7937005259840996 12.699208415745593 7.143304733856896
532 1 0.0 13.492908941729693 7.143304733856896
533 1 0.0 12.699208415745593 7.937005259840996
534 1 0.7937005259840996 13.492908941729693 7.937005259840996
535 1 0.7937005259840996 12.699208415745593 8.730705785825096
536 1 0.0 13.492908941729693 8.730705785825096
537 1 0.0 12.699208415745593 9.524406311809194
538 1 0.7937005259840996 13.492908941729693 9.524406311809194
539 1 0.7937005259840996 12.699208415745593 10.318106837793295
540 1 0.0 13.492908941729693 10.318106837793295
541 1 0.0 12.699208415745593 11.111807363777395
542 1 0.7937005259840996 13.492908941729693 11.111807363777395
543 1 0.7937005259840996 12.699208415745593 11.905507889761495
544 1 0.0 13.492908941729693 11.905507889761495
545 1 0.0 12.699208415745593 12.699208415745593
546 1 0.7937005259840996 13.492908941729693 12.699208415745593
547 1 0.7937005259840996 12.699208415745593 13.492908941729693
548 1 0.0 13.492908941729693 13.492908941729693
549 1 0.0 12.699208415745593 14.286609467713792
550 1 0.7937005259840996 13.492908941729693 14.286609467713792
551 1 0.7937005259840996 12.699208415745593 15.080309993697892
552 1 0.0 13.492908941729693 15.080309993697892
553 1 0.0 12.699208415745593 15.874010519681992
554 1 0.7937005259840996 13.492908941729693 15.874010519681992
555 1 0.7937005259840996 12.699208415745593 16.667711045666092
556 1 0.0 13.492908941729693 16.667711045666092
557 1 0.0 12.699208415745593 17.461411571650192
558 1 0.7937005259840996 13.492908941729693 17.461411571650192
559 1 0.7937005259840996 12.699208415745593 18.255112097634292
560 1 0.0 13.492908941729693 18.255112097634292
561 1 0.0 12.699208415745593 19.04881262361839
562 1 0.7937005259840996 13.492908941729693 19.04881262361839