Position Data

864 atoms
1 atom types

0.0 15.119052598738476 xlo xhi
0.0 7.559526299369238 ylo yhi
0.0 7.559526299369238 zlo zhi

Atoms

1 1 0.0 0.0 0.0
2 1 0.6299605249474365 0.6299605249474365 0.0
3 1 0.6299605249474365 0.0 0.6299605249474365
4 1 0.0 0.6299605249474365 0.6299605249474365
5 1 0.0 0.0 1.259921049894873
6 1 0.6299605249474365 0.6299605249474365 1.259921049894873
7 1 0.6299605249474365 0.0 1.8898815748423095
8 1 0.0 0.6299605249474365 1.8898815748423095
9 1 0.0 0.0 2.519842099789746
10 1 0.6299605249474365 0.6299605249474365 2.519842099789746
11 1 0.6299605249474365 0.0 3.149802624737182
12 1 0.0 0.6299605249474365 3.149802624737182
13 1 0.0 0.0 3.779763149684619
14 1 0.6299605249474365 0.6299605249474365 3.779763149684619
15 1 0.6299605249474365 0.0 4.409723674632056
16 1 0.0 0.6299605249474365 4.409723674632056
17 1 0.0 0.0 5.039684199579492
18 1 0.6299605249474365 0.6299605249474365 5.039684199579492
19 1 0.6299605249474365 0.0 5.669644724526928
20 1 0.0 0.6299605249474365 5.669644724526928
21 1 0.0 0.0 6.299605249474364
22 1 0.6299605249474365 0.6299605249474365 6.299605249474364
23 1 0.6299605249474365 0.0 6.929565774421801
24 1 0.0 0.6299605249474365 6.929565774421801
25 1 0.0 1.259921049894873 0.0
26 1 0.6299605249474365 1.8898815748423095 0.0
27 1 0.6299605249474365 1.259921049894873 0.6299605249474365
28 1 0.0 1.8898815748423095 0.6299605249474365
29 1 0.0 1.259921049894873 1.259921049894873
30 1 0.6299605249474365 1.8898815748423095 1.259921049894873
31 1 0.6299605249474365 1.259921049894873 1.8898815748423095
32 1 0.0 1.8898815748423095 1.8898815748423095
33 1 0.0 1.259921049894873 2.519842099789746
34 1 0.6299605249474365 1.8898815748423095 2.519842099789746
35 1 0.6299605249474365 1.259921049894873 3.149802624737182
36 1 0.0 1.8898815748423095 3.149802624737182
37 1 0.0 1.259921049894873 3.779763149684619
38 1 0.6299605249474365 1.8898815748423095 3.779763149684619
39 1 0.6299605249474365 1.259921049894873 4.409723674632056
40 1 0.0 1.8898815748423095 4.409723674632056
41 1 0.0 1.259921049894873 5.039684199579492
42 1 0.6299605249474365 1.8898815748423095 5.039684199579492
43 1 0.6299605249474365 1.259921049894873 5.669644724526928
44 1 0.0 1.8898815748423095 5.669644724526928
45 1 0.0 1.259921049894873 6.299605249474364
46 1 0.6299605249474365 1.8898815748423095 6.299605249474364
47 1 0.6299605249474365 1.259921049894873 6.929565774421801
48 1 0.0 1.8898815748423095 6.929565774421801
49 1 0.0 2.519842099789746 0.0
50 1 0.6299605249474365 3.149802624737182 0.0
51 1 0.6299605249474365 2.519842099789746 0.6299605249474365
52 1 0.0 3.149802624737182 0.6299605249474365
53 1 0.0 2.519842099789746 1.259921049894873
54 1 0.6299605249474365 3.149802624737182 1.259921049894873
55 1 0.6299605249474365 2.519842099789746 1.8898815748423095
56 1 0.0 3.149802624737182 1.8898815748423095
57 1 0.0 2.519842099789746 2.519842099789746
58 1 0.6299605249474365 3.149802624737182 2.519842099789746
59 1 0.6299605249474365 2.519842099789746 3.149802624737182
60 1 0.0 3.149802624737182 3.149802624737182
61 1 0.0 2.519842099789746 3.779763149684619
62 1 0.6299605249474365 3.149802624737182 3.779763149684619
63 1 0.6299605249474365 2.519842099789746 4.409723674632056
64 1 0.0 3.149802624737182 4.409723674632056
65 1 0.0 2.519842099789746 5.039684199579492
66 1 0.6299605249474365 3.149802624737182 5.039684199579492
67 1 0.6299605249474365 2.519842099789746 5.669644724526928
68 1 0.0 3.149802624737182 5.669644724526928
69 1 0.0 2.519842099789746 6.299605249474364
70 1 0.6299605249474365 3.149802624737182 6.299605249474364
71 1 0.6299605249474365 2.519842099789746 6.929565774421801
72 1 0.0 3.149802624737182 6.929565774421801
73 1 0.0 3.779763149684619 0.0
74 1 0.6299605249474365 4.409723674632056 0.0
75 1 0.6299605249474365 3.779763149684619 0.6299605249474365
76 1 0.0 4.409723674632056 0.6299605249474365
77 1 0.0 3.779763149684619 1.259921049894873
78 1 0.6299605249474365 4.409723674632056 1.259921049894873
79 1 0.6299605249474365 3.779763149684619 1.8898815748423095
80 1 0.0 4.409723674632056 1.8898815748423095
81 1 0.0 3.779763149684619 2.519842099789746
82 1 0.6299605249474365 4.409723674632056 2.519842099789746
83 1 0.6299605249474365 3.779763149684619 3.149802624737182
84 1 0.0 4.409723674632056 3.149802624737182
85 1 0.0 3.779763149684619 3.779763149684619
86 1 0.6299605249474365 4.409723674632056 3.779763149684619
87 1 0.6299605249474365 3.779763149684619 4.409723674632056
88 1 0.0 4.409723674632056 4.409723674632056
89 1 0.0 3.779763149684619 5.039684199579492
90 1 0.6299605249474365 4.409723674632056 5.039684199579492
91 1 0.6299605249474365 3.779763149684619 5.669644724526928
92 1 0.0 4.409723674632056 5.669644724526928
93 1 0.0 3.779763149684619 6.299605249474364
94 1 0.6299605249474365 4.409723674632056 6.299605249474364
95 1 0.6299605249474365 3.779763149684619 6.929565774421801
96 1 0.0 4.409723674632056 6.929565774421801
97 1 0.0 5.039684199579492 0.0
98 1 0.6299605249474365 5.669644724526928 0.0
99 1 0.6299605249474365 5.039684199579492 0.6299605249474365
100 1 0.0 5.669644724526928 0.6299605249474365
101 1 0.0 5.039684199579492 1.259921049894873
102 1 0.6299605249474365 5.669644724526928 1.259921049894873
103 1 0.6299605249474365 5.039684199579492 1.8898815748423095
104 1 0.0 5.669644724526928 1.8898815748423095
105 1 0.0 5.039684199579492 2.519842099789746
106 1 0.6299605249474365 5.669644724526928 2.519842099789746
107 1 0.6299605249474365 5.039684199579492 3.149802624737182
108 1 0.0 5.669644724526928 3.149802624737182
109 1 0.0 5.039684199579492 3.779763149684619
110 1 0.6299605249474365 5.669644724526928 3.779763149684619
111 1 0.6299605249474365 5.039684199579492 4.409723674632056
112 1 0.0 5.669644724526928 4.409723674632056
113 1 0.0 5.039684199579492 5.039684199579492
114 1 0.6299605249474365 5.669644724526928 5.039684199579492
115 1 0.6299605249474365 5.039684199579492 5.669644724526928
116 1 0.0 5.669644724526928 5.669644724526928
117 1 0.0 5.039684199579492 6.299605249474364
118 1 0.6299605249474365 5.669644724526928 6.299605249474364
119 1 0.6299605249474365 5.039684199579492 6.929565774421801
120 1 0.0 5.669644724526928 6.929565774421801
121 1 0.0 6.299605249474364 0.0
122 1 0.6299605249474365 6.929565774421801 0.0
123 1 0.6299605249474365 6.299605249474364 0.6299605249474365
124 1 0.0 6.929565774421801 0.6299605249474365
125 1 0.0 6.299605249474364 1.259921049894873
126 1 0.6299605249474365 6.929565774421801 1.259921049894873
127 1 0.6299605249474365 6.299605249474364 1.8898815748423095
128 1 0.0 6.929565774421801 1.8898815748423095
129 1 0.0 6.299605249474364 2.519842099789746
130 1 0.6299605249474365 6.929565774421801 2.519842099789746
131 1 0.6299605249474365 6.299605249474364 3.149802624737182
132 1 0.0 6.929565774421801 3.149802624737182
133 1 0.0 6.299605249474364 3.779763149684619
134 1 0.6299605249474365 6.929565774421801 3.779763149684619
135 1 0.6299605249474365 6.299605249474364 4.409723674632056
136 1 0.0 6.929565774421801 4.409723674632056
137 1 0.0 6.299605249474364 5.039684199579492
138 1 0.6299605249474365 6.929565774421801 5.039684199579492
139 1 0.6299605249474365 6.299605249474364 5.669644724526928
140 1 0.0 6.929565774421801 5.669644724526928
141 1 0.0 6.299605249474364 6.299605249474364
142 1 0.6299605249474365 6.929565774421801 6.299605249474364
143 1 0.6299605249474365 6.299605249474364 6.929565774421801
144 1 0.0 6.929565774421801 6.929565774421801
145 1 1.259921049894873 0.0 0.0
146 1 1.8898815748423095 0.6299605249474365 0.0
147 1 1.8898815748423095 0.0 0.6299605249474365
148 1 1.259921049894873 0.6299605249474365 0.6299605249474365
149 1 1.259921049894873 0.0 1.259921049894873
150 1 1.8898815748423095 0.6299605249474365 1.259921049894873
151 1 1.8898815748423095 0.0 1.8898815748423095
152 1 1.259921049894873 0.6299605249474365 1.8898815748423095
153 1 1.259921049894873 0.0 2.519842099789746
154 1 1.8898815748423095 0.6299605249474365 2.519842099789746
155 1 1.8898815748423095 0.0 3.149802624737182
156 1 1.259921049894873 0.6299605249474365 3.149802624737182
157 1 1.259921049894873 0.0 3.779763149684619
158 1 1.8898815748423095 0.6299605249474365 3.779763149684619
159 1 1.8898815748423095 0.0 4.409723674632056
160 1 1.259921049894873 0.6299605249474365 4.409723674632056
161 1 1.259921049894873 0.0 5.039684199579492
162 1 1.8898815748423095 0.6299605249474365 5.039684199579492
163 1 1.8898815748423095 0.0 5.669644724526928
164 1 1.259921049894873 0.6299605249474365 5.669644724526928
165 1 1.259921049894873 0.0 6.299605249474364
166 1 1.8898815748423095 0.6299605249474365 6.299605249474364
167 1 1.8898815748423095 0.0 6.929565774421801
168 1 1.259921049894873 0.6299605249474365 6.929565774421801
169 1 1.259921049894873 1.259921049894873 0.0
170 1 1.8898815748423095 1.8898815748423095 0.0
171 1 1.8898815748423095 1.259921049894873 0.6299605249474365
172 1 1.259921049894873 1.8898815748423095 0.6299605249474365
173 1 1.259921049894873 1.259921049894873 1.259921049894873
174 1 1.8898815748423095 1.8898815748423095 1.259921049894873
175 1 1.8898815748423095 1.259921049894873 1.8898815748423095
176 1 1.259921049894873 1.8898815748423095 1.8898815748423095
177 1 1.259921049894873 1.259921049894873 2.519842099789746
178 1 1.8898815748423095 1.8898815748423095 2.519842099789746
179 1 1.8898815748423095 1.259921049894873 3.149802624737182
180 1 1.259921049894873 1.8898815748423095 3.149802624737182
181 1 1.259921049894873 1.259921049894873 3.779763149684619
182 1 1.8898815748423095 1.8898815748423095 3.779763149684619
183 1 1.8898815748423095 1.259921049894873 4.409723674632056
184 1 1.259921049894873 1.8898815748423095 4.409723674632056
185 1 1.259921049894873 1.259921049894873 5.039684199579492
186 1 1.8898815748423095 1.8898815748423095 5.039684199579492
187 1 1.8898815748423095 1.259921049894873 5.669644724526928
188 1 1.259921049894873 1.8898815748423095 5.669644724526928
189 1 1.259921049894873 1.259921049894873 6.299605249474364
190 1 1.8898815748423095 1.8898815748423095 6.299605249474364
191 1 1.8898815748423095 1.259921049894873 6.929565774421801
192 1 1.259921049894873 1.8898815748423095 6.929565774421801
193 1 1.259921049894873 2.519842099789746 0.0
194 1 1.8898815748423095 3.149802624737182 0.0
195 1 1.8898815748423095 2.519842099789746 0.6299605249474365
196 1 1.259921049894873 3.149802624737182 0.6299605249474365
197 1 1.259921049894873 2.519842099789746 1.259921049894873
198 1 1.8898815748423095 3.149802624737182 1.259921049894873
199 1 1.8898815748423095 2.519842099789746 1.8898815748423095
200 1 1.259921049894873 3.149802624737182 1.8898815748423095
201 1 1.259921049894873 2.519842099789746 2.519842099789746
202 1 1.8898815748423095 3.149802624737182 2.519842099789746
203 1 1.8898815748423095 2.519842099789746 3.149802624737182
204 1 1.259921049894873 3.149802624737182 3.149802624737182
205 1 1.259921049894873 2.519842099789746 3.779763149684619
206 1 1.8898815748423095 3.149802624737182 3.779763149684619
207 1 1.8898815748423095 2.519842099789746 4.409723674632056
208 1 1.259921049894873 3.149802624737182 4.409723674632056
209 1 1.259921049894873 2.519842099789746 5.039684199579492
210 1 1.8898815748423095 3.149802624737182 5.039684199579492
211 1 1.8898815748423095 2.519842099789746 5.669644724526928
212 1 1.259921049894873 3.149802624737182 5.669644724526928
213 1 1.259921049894873 2.519842099789746 6.299605249474364
214 1 1.8898815748423095 3.149802624737182 6.299605249474364
215 1 1.8898815748423095 2.519842099789746 6.929565774421801
216 1 1.259921049894873 3.149802624737182 6.929565774421801
217 1 1.259921049894873 3.779763149684619 0.0
218 1 1.8898815748423095 4.409723674632056 0.0
219 1 1.8898815748423095 3.779763149684619 0.6299605249474365
220 1 1.259921049894873 4.409723674632056 0.6299605249474365
221 1 1.259921049894873 3.779763149684619 1.259921049894873
222 1 1.8898815748423095 4.409723674632056 1.259921049894873
223 1 1.8898815748423095 3.779763149684619 1.8898815748423095
224 1 1.259921049894873 4.409723674632056 1.8898815748423095
225 1 1.259921049894873 3.779763149684619 2.519842099789746
226 1 1.8898815748423095 4.409723674632056 2.519842099789746
227 1 1.8898815748423095 3.779763149684619 3.149802624737182
228 1 1.259921049894873 4.409723674632056 3.149802624737182
229 1 1.259921049894873 3.779763149684619 3.779763149684619
230 1 1.8898815748423095 4.409723674632056 3.779763149684619
231 1 1.8898815748423095 3.779763149684619 4.409723674632056
232 1 1.259921049894873 4.409723674632056 4.409723674632056
233 1 1.259921049894873 3.779763149684619 5.039684199579492
234 1 1.8898815748423095 4.409723674632056 5.039684199579492
235 1 1.8898815748423095 3.779763149684619 5.669644724526928
236 1 1.259921049894873 4.409723674632056 5.669644724526928
237 1 1.259921049894873 3.779763149684619 6.299605249474364
238 1 1.8898815748423095 4.409723674632056 6.299605249474364
239 1 1.8898815748423095 3.779763149684619 6.929565774421801
240 1 1.259921049894873 4.409723674632056 6.929565774421801
241 1 1.259921049894873 5.039684199579492 0.0
242 1 1.8898815748423095 5.669644724526928 0.0
243 1 1.8898815748423095 5.039684199579492 0.6299605249474365
244 1 1.259921049894873 5.669644724526928 0.6299605249474365
245 1 1.259921049894873 5.039684199579492 1.259921049894873
246 1 1.8898815748423095 5.669644724526928 1.259921049894873
247 1 1.8898815748423095 5.039684199579492 1.8898815748423095
248 1 1.259921049894873 5.669644724526928 1.8898815748423095
249 1 1.259921049894873 5.039684199579492 2.519842099789746
250 1 1.8898815748423095 5.669644724526928 2.519842099789746
251 1 1.8898815748423095 5.039684199579492 3.149802624737182
252 1 1.259921049894873 5.669644724526928 3.149802624737182
253 1 1.259921049894873 5.039684199579492 3.779763149684619
254 1 1.8898815748423095 5.669644724526928 3.779763149684619
255 1 1.8898815748423095 5.039684199579492 4.409723674632056
256 1 1.259921049894873 5.669644724526928 4.409723674632056
257 1 1.259921049894873 5.039684199579492 5.039684199579492
258 1 1.8898815748423095 5.669644724526928 5.039684199579492
259 1 1.8898815748423095 5.039684199579492 5.669644724526928
260 1 1.259921049894873 5.669644724526928 5.669644724526928
261 1 1.259921049894873 5.039684199579492 6.299605249474364
262 1 1.8898815748423095 5.669644724526928 6.299605249474364
263 1 1.8898815748423095 5.039684199579492 6.929565774421801
264 1 1.259921049894873 5.669644724526928 6.929565774421801
265 1 1.259921049894873 6.299605249474364 0.0
266 1 1.8898815748423095 6.929565774421801 0.0
267 1 1.8898815748423095 6.299605249474364 0.6299605249474365
268 1 1.259921049894873 6.929565774421801 0.6299605249474365
269 1 1.259921049894873 6.299605249474364 1.259921049894873
270 1 1.8898815748423095 6.929565774421801 1.259921049894873
271 1 1.8898815748423095 6.299605249474364 1.8898815748423095
272 1 1.259921049894873 6.929565774421801 1.8898815748423095
273 1 1.259921049894873 6.299605249474364 2.519842099789746
274 1 1.8898815748423095 6.929565774421801 2.519842099789746
275 1 1.8898815748423095 6.299605249474364 3.149802624737182
276 1 1.259921049894873 6.929565774421801 3.149802624737182
277 1 1.259921049894873 6.299605249474364 3.779763149684619
278 1 1.8898815748423095 6.929565774421801 3.779763149684619
279 1 1.8898815748423095 6.299605249474364 4.409723674632056
280 1 1.259921049894873 6.929565774421801 4.409723674632056
281 1 1.259921049894873 6.299605249474364 5.039684199579492
282 1 1.8898815748423095 6.929565774421801 5.039684199579492
283 1 1.8898815748423095 6.299605249474364 5.669644724526928
284 1 1.259921049894873 6.929565774421801 5.669644724526928
285 1 1.259921049894873 6.299605249474364 6.299605249474364
286 1 1.8898815748423095 6.929565774421801 6.299605249474364
287 1 1.8898815748423095 6.299605249474364 6.929565774421801
288 1 1.259921049894873 6.929565774421801 6.929565774421801
289 1 2.519842099789746 0.0 0.0
290 1 3.149802624737182 0.6299605249474365 0.0
291 1 3.149802624737182 0.0 0.6299605249474365
292 1 2.519842099789746 0.6299605249474365 0.6299605249474365
293 1 2.519842099789746 0.0 1.259921049894873
294 1 3.149802624737182 0.6299605249474365 1.259921049894873
295 1 3.149802624737182 0.0 1.8898815748423095
296 1 2.519842099789746 0.6299605249474365 1.8898815748423095
297 1 2.519842099789746 0.0 2.519842099789746
298 1 3.149802624737182 0.6299605249474365 2.519842099789746
299 1 3.149802624737182 0.0 3.149802624737182
300 1 2.519842099789746 0.6299605249474365 3.149802624737182
301 1 2.519842099789746 0.0 3.779763149684619
302 1 3.149802624737182 0.6299605249474365 3.779763149684619
303 1 3.149802624737182 0.0 4.409723674632056
304 1 2.519842099789746 0.6299605249474365 4.409723674632056
305 1 2.519842099789746 0.0 5.039684199579492
306 1 3.149802624737182 0.6299605249474365 5.039684199579492
307 1 3.149802624737182 0.0 5.669644724526928
308 1 2.519842099789746 0.6299605249474365 5.669644724526928
309 1 2.519842099789746 0.0 6.299605249474364
310 1 3.149802624737182 0.6299605249474365 6.299605249474364
311 1 3.149802624737182 0.0 6.929565774421801
312 1 2.519842099789746 0.6299605249474365 6.929565774421801
313 1 2.519842099789746 1.259921049894873 0.0
314 1 3.149802624737182 1.8898815748423095 0.0
315 1 3.149802624737182 1.259921049894873 0.6299605249474365
316 1 2.519842099789746 1.8898815748423095 0.6299605249474365
317 1 2.519842099789746 1.259921049894873 1.259921049894873
318 1 3.149802624737182 1.8898815748423095 1.259921049894873
319 1 3.149802624737182 1.259921049894873 1.8898815748423095
320 1 2.519842099789746 1.8898815748423095 1.8898815748423095
321 1 2.519842099789746 1.259921049894873 2.519842099789746
322 1 3.149802624737182 1.8898815748423095 2.519842099789746
323 1 3.149802624737182 1.259921049894873 3.149802624737182
324 1 2.519842099789746 1.8898815748423095 3.149802624737182
325 1 2.519842099789746 1.259921049894873 3.779763149684619
326 1 3.149802624737182 1.8898815748423095 3.779763149684619
327 1 3.149802624737182 1.259921049894873 4.409723674632056
328 1 2.519842099789746 1.8898815748423095 4.409723674632056
329 1 2.519842099789746 1.259921049894873 5.039684199579492
330 1 3.149802624737182 1.8898815748423095 5.039684199579492
331 1 3.149802624737182 1.259921049894873 5.669644724526928
332 1 2.519842099789746 1.8898815748423095 5.669644724526928
333 1 2.519842099789746 1.259921049894873 6.299605249474364
334 1 3.149802624737182 1.8898815748423095 6.299605249474364
335 1 3.149802624737182 1.259921049894873 6.929565774421801
336 1 2.519842099789746 1.8898815748423095 6.929565774421801
337 1 2.519842099789746 2.519842099789746 0.0
338 1 3.149802624737182 3.149802624737182 0.0
339 1 3.149802624737182 2.519842099789746 0.6299605249474365
340 1 2.519842099789746 3.149802624737182 0.6299605249474365
341 1 2.519842099789746 2.519842099789746 1.259921049894873
342 1 3.149802624737182 3.149802624737182 1.259921049894873
343 1 3.149802624737182 2.519842099789746 1.8898815748423095
344 1 2.519842099789746 3.149802624737182 1.8898815748423095
345 1 2.519842099789746 2.519842099789746 2.519842099789746
346 1 3.149802624737182 3.149802624737182 2.519842099789746
347 1 3.149802624737182 2.519842099789746 3.149802624737182
348 1 2.519842099789746 3.149802624737182 3.149802624737182
349 1 2.519842099789746 2.519842099789746 3.779763149684619
350 1 3.149802624737182 3.149802624737182 3.779763149684619
351 1 3.149802624737182 2.519842099789746 4.409723674632056
352 1 2.519842099789746 3.149802624737182 4.409723674632056
353 1 2.519842099789746 2.519842099789746 5.039684199579492
354 1 3.149802624737182 3.149802624737182 5.039684199579492
355 1 3.149802624737182 2.519842099789746 5.669644724526928
356 1 2.519842099789746 3.149802624737182 5.669644724526928
357 1 2.519842099789746 2.519842099789746 6.299605249474364
358 1 3.149802624737182 3.149802624737182 6.299605249474364
359 1 3.149802624737182 2.519842099789746 6.929565774421801
360 1 2.519842099789746 3.149802624737182 6.929565774421801
361 1 2.519842099789746 3.779763149684619 0.0
362 1 3.149802624737182 4.409723674632056 0.0
363 1 3.149802624737182 3.779763149684619 0.6299605249474365
364 1 2.519842099789746 4.409723674632056 0.6299605249474365
365 1 2.519842099789746 3.779763149684619 1.259921049894873
366 1 3.149802624737182 4.409723674632056 1.259921049894873
367 1 3.149802624737182 3.779763149684619 1.8898815748423095
368 1 2.519842099789746 4.409723674632056 1.8898815748423095
369 1 2.519842099789746 3.779763149684619 2.519842099789746
370 1 3.149802624737182 4.409723674632056 2.519842099789746
371 1 3.149802624737182 3.779763149684619 3.149802624737182
372 1 2.519842099789746 4.409723674632056 3.149802624737182
373 1 2.519842099789746 3.779763149684619 3.779763149684619
374 1 3.149802624737182 4.409723674632056 3.779763149684619
375 1 3.149802624737182 3.779763149684619 4.409723674632056
376 1 2.519842099789746 4.409723674632056 4.409723674632056
377 1 2.519842099789746 3.779763149684619 5.039684199579492
378 1 3.149802624737182 4.409723674632056 5.039684199579492
379 1 3.149802624737182 3.779763149684619 5.669644724526928
380 1 2.519842099789746 4.409723674632056 5.669644724526928
381 1 2.519842099789746 3.779763149684619 6.299605249474364
382 1 3.149802624737182 4.409723674632056 6.299605249474364
383 1 3.149802624737182 3.779763149684619 6.929565774421801
384 1 2.519842099789746 4.409723674632056 6.929565774421801
385 1 2.519842099789746 5.039684199579492 0.0
386 1 3.149802624737182 5.669644724526928 0.0
387 1 3.149802624737182 5.039684199579492 0.6299605249474365
388 1 2.519842099789746 5.669644724526928 0.6299605249474365
389 1 2.519842099789746 5.039684199579492 1.259921049894873
390 1 3.149802624737182 5.669644724526928 1.259921049894873
391 1 3.149802624737182 5.039684199579492 1.8898815748423095
392 1 2.519842099789746 5.669644724526928 1.8898815748423095
393 1 2.519842099789746 5.039684199579492 2.519842099789746
394 1 3.149802624737182 5.669644724526928 2.519842099789746
395 1 3.149802624737182 5.039684199579492 3.149802624737182
396 1 2.519842099789746 5.669644724526928 3.149802624737182
397 1 2.519842099789746 5.039684199579492 3.779763149684619
398 1 3.149802624737182 5.669644724526928 3.779763149684619
399 1 3.149802624737182 5.039684199579492 4.409723674632056
400 1 2.519842099789746 5.669644724526928 4.409723674632056
401 1 2.519842099789746 5.039684199579492 5.039684199579492
402 1 3.149802624737182 5.669644724526928 5.039684199579492
403 1 3.149802624737182 5.039684199579492 5.669644724526928
404 1 2.519842099789746 5.669644724526928 5.669644724526928
405 1 2.519842099789746 5.039684199579492 6.299605249474364
406 1 3.149802624737182 5.669644724526928 6.299605249474364
407 1 3.149802624737182 5.039684199579492 6.929565774421801
408 1 2.519842099789746 5.669644724526928 6.929565774421801
409 1 2.519842099789746 6.299605249474364 0.0
410 1 3.149802624737182 6.929565774421801 0.0
411 1 3.149802624737182 6.299605249474364 0.6299605249474365
412 1 2.519842099789746 6.929565774421801 0.6299605249474365
413 1 2.519842099789746 6.299605249474364 1.259921049894873
414 1 3.149802624737182 6.929565774421801 1.259921049894873
415 1 3.149802624737182 6.299605249474364 1.8898815748423095
416 1 2.519842099789746 6.929565774421801 1.8898815748423095
417 1 2.519842099789746 6.299605249474364 2.519842099789746
418 1 3.149802624737182 6.929565774421801 2.519842099789746
419 1 3.149802624737182 6.299605249474364 3.149802624737182
420 1 2.519842099789746 6.929565774421801 3.149802624737182
421 1 2.519842099789746 6.299605249474364 3.779763149684619
422 1 3.149802624737182 6.929565774421801 3.779763149684619
423 1 3.149802624737182 6.299605249474364 4.409723674632056
424 1 2.519842099789746 6.929565774421801 4.409723674632056
425 1 2.519842099789746 6.299605249474364 5.039684199579492
426 1 3.149802624737182 6.929565774421801 5.039684199579492
427 1 3.149802624737182 6.299605249474364 5.669644724526928
428 1 2.519842099789746 6.929565774421801 5.669644724526928
429 1 2.519842099789746 6.299605249474364 6.299605249474364
430 1 3.149802624737182 6.929565774421801 6.299605249474364
431 1 3.149802624737182 6.299605249474364 6.929565774421801
432 1 2.519842099789746 6.929565774421801 6.929565774421801
433 1 3.779763149684619 0.0 0.0
434 1 4.409723674632056 0.6299605249474365 0.0
435 1 4.409723674632056 0.0 0.6299605249474365
436 1 3.779763149684619 0.6299605249474365 0.6299605249474365
437 1 3.779763149684619 0.0 1.259921049894873
438 1 4.409723674632056 0.6299605249474365 1.259921049894873
439 1 4.409723674632056 0.0 1.8898815748423095
440 1 3.779763149684619 0.6299605249474365 1.8898815748423095
441 1 3.779763149684619 0.0 2.519842099789746
442 1 4.409723674632056 0.6299605249474365 2.519842099789746
443 1 4.409723674632056 0.0 3.149802624737182
444 1 3.779763149684619 0.6299605249474365 3.149802624737182
445 1 3.779763149684619 0.0 3.779763149684619
446 1 4.409723674632056 0.6299605249474365 3.779763149684619
447 1 4.409723674632056 0.0 4.409723674632056
448 1 3.779763149684619 0.6299605249474365 4.409723674632056
449 1 3.779763149684619 0.0 5.039684199579492
450 1 4.409723674632056 0.6299605249474365 5.039684199579492
451 1 4.409723674632056 0.0 5.669644724526928
452 1 3.779763149684619 0.6299605249474365 5.669644724526928
453 1 3.779763149684619 0.0 6.299605249474364
454 1 4.409723674632056 0.6299605249474365 6.299605249474364
455 1 4.409723674632056 0.0 6.929565774421801
456 1 3.779763149684619 0.6299605249474365 6.929565774421801
457 1 3.779763149684619 1.259921049894873 0.0
458 1 4.409723674632056 1.8898815748423095 0.0
459 1 4.409723674632056 1.259921049894873 0.6299605249474365
460 1 3.779763149684619 1.8898815748423095 0.6299605249474365
461 1 3.779763149684619 1.259921049894873 1.259921049894873
462 1 4.409723674632056 1.8898815748423095 1.259921049894873
463 1 4.409723674632056 1.259921049894873 1.8898815748423095
464 1 3.779763149684619 1.8898815748423095 1.8898815748423095
465 1 3.779763149684619 1.259921049894873 2.519842099789746
466 1 4.409723674632056 1.8898815748423095 2.519842099789746
467 1 4.409723674632056 1.259921049894873 3.149802624737182
468 1 3.779763149684619 1.8898815748423095 3.149802624737182
469 1 3.779763149684619 1.259921049894873 3.779763149684619
470 1 4.409723674632056 1.8898815748423095 3.779763149684619
471 1 4.409723674632056 1.259921049894873 4.409723674632056
472 1 3.779763149684619 1.8898815748423095 4.409723674632056
473 1 3.779763149684619 1.259921049894873 5.039684199579492
474 1 4.409723674632056 1.8898815748423095 5.039684199579492
475 1 4.409723674632056 1.259921049894873 5.669644724526928
476 1 3.779763149684619 1.8898815748423095 5.669644724526928
477 1 3.779763149684619 1.259921049894873 6.299605249474364
478 1 4.409723674632056 1.8898815748423095 6.299605249474364
479 1 4.409723674632056 1.259921049894873 6.929565774421801
480 1 3.779763149684619 1.8898815748423095 6.929565774421801
481 1 3.779763149684619 2.519842099789746 0.0
482 1 4.409723674632056 3.149802624737182 0.0
483 1 4.409723674632056 2.519842099789746 0.6299605249474365
484 1 3.779763149684619 3.149802624737182 0.6299605249474365
485 1 3.779763149684619 2.519842099789746 1.259921049894873
486 1 4.409723674632056 3.149802624737182 1.259921049894873
487 1 4.409723674632056 2.519842099789746 1.8898815748423095
488 1 3.779763149684619 3.149802624737182 1.8898815748423095
489 1 3.779763149684619 2.519842099789746 2.519842099789746
490 1 4.409723674632056 3.149802624737182 2.519842099789746
491 1 4.409723674632056 2.519842099789746 3.149802624737182
492 1 3.779763149684619 3.149802624737182 3.149802624737182
493 1 3.779763149684619 2.519842099789746 3.779763149684619
494 1 4.409723674632056 3.149802624737182 3.779763149684619
495 1 4.409723674632056 2.519842099789746 4.409723674632056
496 1 3.779763149684619 3.149802624737182 4.409723674632056
497 1 3.779763149684619 2.519842099789746 5.039684199579492
498 1 4.409723674632056 3.149802624737182 5.039684199579492
499 1 4.409723674632056 2.519842099789746 5.669644724526928
500 1 3.779763149684619 3.149802624737182 5.669644724526928
501 1 3.779763149684619 2.519842099789746 6.299605249474364
502 1 4.409723674632056 3.149802624737182 6.299605249474364
503 1 4.409723674632056 2.519842099789746 6.929565774421801
504 1 3.779763149684619 3.149802624737182 6.929565774421801
505 1 3.779763149684619 3.779763149684619 0.0
506 1 4.409723674632056 4.409723674632056 0.0
507 1 4.409723674632056 3.779763149684619 0.6299605249474365
508 1 3.779763149684619 4.409723674632056 0.6299605249474365
509 1 3.779763149684619 3.779763149684619 1.259921049894873
510 1 4.409723674632056 4.409723674632056 1.259921049894873
511 1 4.409723674632056 3.779763149684619 1.8898815748423095
512 1 3.779763149684619 4.409723674632056 1.8898815748423095
513 1 3.779763149684619 3.779763149684619 2.519842099789746
514 1 4.409723674632056 4.409723674632056 2.519842099789746
515 1 4.409723674632056 3.779763149684619 3.149802624737182
516 1 3.779763149684619 4.409723674632056 3.149802624737182
517 1 3.779763149684619 3.779763149684619 3.779763149684619
518 1 4.409723674632056 4.409723674632056 3.779763149684619
519 1 4.409723674632056 3.779763149684619 4.409723674632056
520 1 3.779763149684619 4.409723674632056 4.409723674632056
521 1 3.779763149684619 3.779763149684619 5.039684199579492
522 1 4.409723674632056 4.409723674632056 5.039684199579492
523 1 4.409723674632056 3.779763149684619 5.669644724526928
524 1 3.779763149684619 4.409723674632056 5.669644724526928
525 1 3.779763149684619 3.779763149684619 6.299605249474364
526 1 4.409723674632056 4.409723674632056 6.299605249474364
527 1 4.409723674632056 3.779763149684619 6.929565774421801
528 1 3.779763149684619 4.409723674632056 6.929565774421801
529 1 3.779763149684619 5.039684199579492 0.0
530 1 4.409723674632056 5.669644724526928 0.0
531 1 4.409723674632056 5.039684199579492 0.6299605249474365
532 1 3.779763149684619 5.669644724526928 0.6299605249474365