Position Data

256 atoms
1 atom types

0.0 10.079368399158984 xlo xhi
0.0 5.039684199579492 ylo yhi
0.0 5.039684199579492 zlo zhi

Atoms

1 1 0.0 0.0 0.0
2 1 0.6299605249474365 0.6299605249474365 0.0
3 1 0.6299605249474365 0.0 0.6299605249474365
4 1 0.0 0.6299605249474365 0.6299605249474365
5 1 0.0 0.0 1.259921049894873
6 1 0.6299605249474365 0.6299605249474365 1.259921049894873
7 1 0.6299605249474365 0.0 1.8898815748423095
8 1 0.0 0.6299605249474365 1.8898815748423095
9 1 0.0 0.0 2.519842099789746
10 1 0.6299605249474365 0.6299605249474365 2.519842099789746
11 1 0.6299605249474365 0.0 3.149802624737182
12 1 0.0 0.6299605249474365 3.149802624737182
13 1 0.0 0.0 3.779763149684619
14 1 0.6299605249474365 0.6299605249474365 3.779763149684619
15 1 0.6299605249474365 0.0 4.409723674632056
16 1 0.0 0.6299605249474365 4.409723674632056
17 1 0.0 1.259921049894873 0.0
18 1 0.6299605249474365 1.8898815748423095 0.0
19 1 0.6299605249474365 1.259921049894873 0.6299605249474365
20 1 0.0 1.8898815748423095 0.6299605249474365
21 1 0.0 1.259921049894873 1.259921049894873
22 1 0.6299605249474365 1.8898815748423095 1.259921049894873
23 1 0.6299605249474365 1.259921049894873 1.8898815748423095
24 1 0.0 1.8898815748423095 1.8898815748423095
25 1 0.0 1.259921049894873 2.519842099789746
26 1 0.6299605249474365 1.8898815748423095 2.519842099789746
27 1 0.6299605249474365 1.259921049894873 3.149802624737182
28 1 0.0 1.8898815748423095 3.149802624737182
29 1 0.0 1.259921049894873 3.779763149684619
30 1 0.6299605249474365 1.8898815748423095 3.779763149684619
31 1 0.6299605249474365 1.259921049894873 4.409723674632056
32 1 0.0 1.8898815748423095 4.409723674632056
33 1 0.0 2.519842099789746 0.0
34 1 0.6299605249474365 3.149802624737182 0.0
35 1 0.6299605249474365 2.519842099789746 0.6299605249474365
36 1 0.0 3.149802624737182 0.6299605249474365
37 1 0.0 2.519842099789746 1.259921049894873
38 1 0.6299605249474365 3.149802624737182 1.259921049894873
39 1 0.6299605249474365 2.519842099789746 1.8898815748423095
40 1 0.0 3.149802624737182 1.8898815748423095
41 1 0.0 2.519842099789746 2.519842099789746
42 1 0.6299605249474365 3.149802624737182 2.519842099789746
43 1 0.6299605249474365 2.519842099789746 3.149802624737182
44 1 0.0 3.149802624737182 3.149802624737182
45 1 0.0 2.519842099789746 3.779763149684619
46 1 0.6299605249474365 3.149802624737182 3.779763149684619
47 1 0.6299605249474365 2.519842099789746 4.409723674632056
48 1 0.0 3.149802624737182 4.409723674632056
49 1 0.0 3.779763149684619 0.0
50 1 0.6299605249474365 4.409723674632056 0.0
51 1 0.6299605249474365 3.779763149684619 0.6299605249474365
52 1 0.0 4.409723674632056 0.6299605249474365
53 1 0.0 3.779763149684619 1.259921049894873
54 1 0.6299605249474365 4.409723674632056 1.259921049894873
55 1 0.6299605249474365 3.779763149684619 1.8898815748423095
56 1 0.0 4.409723674632056 1.8898815748423095
57 1 0.0 3.779763149684619 2.519842099789746
58 1 0.6299605249474365 4.409723674632056 2.519842099789746
59 1 0.6299605249474365 3.779763149684619 3.149802624737182
60 1 0.0 4.409723674632056 3.149802624737182
61 1 0.0 3.779763149684619 3.779763149684619
62 1 0.6299605249474365 4.409723674632056 3.779763149684619
63 1 0.6299605249474365 3.779763149684619 4.409723674632056
64 1 0.0 4.409723674632056 4.409723674632056
65 1 1.259921049894873 0.0 0.0
66 1 1.8898815748423095 0.6299605249474365 0.0
67 1 1.8898815748423095 0.0 0.6299605249474365
68 1 1.259921049894873 0.6299605249474365 0.6299605249474365
69 1 1.259921049894873 0.0 1.259921049894873
70 1 1.8898815748423095 0.6299605249474365 1.259921049894873
71 1 1.8898815748423095 0.0 1.8898815748423095
72 1 1.259921049894873 0.6299605249474365 1.8898815748423095
73 1 1.259921049894873 0.0 2.519842099789746
74 1 1.8898815748423095 0.6299605249474365 2.519842099789746
75 1 1.8898815748423095 0.0 3.149802624737182
76 1 1.259921049894873 0.6299605249474365 3.149802624737182
77 1 1.259921049894873 0.0 3.779763149684619
78 1 1.8898815748423095 0.6299605249474365 3.779763149684619
79 1 1.8898815748423095 0.0 4.409723674632056
80 1 1.259921049894873 0.6299605249474365 4.409723674632056
81 1 1.259921049894873 1.259921049894873 0.0
82 1 1.8898815748423095 1.8898815748423095 0.0
83 1 1.8898815748423095 1.259921049894873 0.6299605249474365
84 1 1.259921049894873 1.8898815748423095 0.6299605249474365
85 1 1.259921049894873 1.259921049894873 1.259921049894873
86 1 1.8898815748423095 1.8898815748423095 1.259921049894873
87 1 1.8898815748423095 1.259921049894873 1.8898815748423095
88 1 1.259921049894873 1.8898815748423095 1.8898815748423095
89 1 1.259921049894873 1.259921049894873 2.519842099789746
90 1 1.8898815748423095 1.8898815748423095 2.519842099789746
91 1 1.8898815748423095 1.259921049894873 3.149802624737182
92 1 1.259921049894873 1.8898815748423095 3.149802624737182
93 1 1.259921049894873 1.259921049894873 3.779763149684619
94 1 1.8898815748423095 1.8898815748423095 3.779763149684619
95 1 1.8898815748423095 1.259921049894873 4.409723674632056
96 1 1.259921049894873 1.8898815748423095 4.409723674632056
97 1 1.259921049894873 2.519842099789746 0.0
98 1 1.8898815748423095 3.149802624737182 0.0
99 1 1.8898815748423095 2.519842099789746 0.6299605249474365
100 1 1.259921049894873 3.149802624737182 0.6299605249474365
101 1 1.259921049894873 2.519842099789746 1.259921049894873
102 1 1.8898815748423095 3.149802624737182 1.259921049894873
103 1 1.8898815748423095 2.519842099789746 1.8898815748423095
104 1 1.259921049894873 3.149802624737182 1.8898815748423095
105 1 1.259921049894873 2.519842099789746 2.519842099789746
106 1 1.8898815748423095 3.149802624737182 2.519842099789746
107 1 1.8898815748423095 2.519842099789746 3.149802624737182
108 1 1.259921049894873 3.149802624737182 3.149802624737182
109 1 1.259921049894873 2.519842099789746 3.779763149684619
110 1 1.8898815748423095 3.149802624737182 3.779763149684619
111 1 1.8898815748423095 2.519842099789746 4.409723674632056
112 1 1.259921049894873 3.149802624737182 4.409723674632056
113 1 1.259921049894873 3.779763149684619 0.0
114 1 1.8898815748423095 4.409723674632056 0.0
115 1 1.8898815748423095 3.779763149684619 0.6299605249474365
116 1 1.259921049894873 4.409723674632056 0.6299605249474365
117 1 1.259921049894873 3.779763149684619 1.259921049894873
118 1 1.8898815748423095 4.409723674632056 1.259921049894873
119 1 1.8898815748423095 3.779763149684619 1.8898815748423095
120 1 1.259921049894873 4.409723674632056 1.8898815748423095
121 1 1.259921049894873 3.779763149684619 2.519842099789746
122 1 1.8898815748423095 4.409723674632056 2.519842099789746
123 1 1.8898815748423095 3.779763149684619 3.149802624737182
124 1 1.259921049894873 4.409723674632056 3.149802624737182
125 1 1.259921049894873 3.779763149684619 3.779763149684619
126 1 1.8898815748423095 4.409723674632056 3.779763149684619
127 1 1.8898815748423095 3.779763149684619 4.409723674632056
128 1 1.259921049894873 4.409723674632056 4.409723674632056
129 1 2.519842099789746 0.0 0.0
130 1 3.149802624737182 0.6299605249474365 0.0
131 1 3.149802624737182 0.0 0.6299605249474365
132 1 2.519842099789746 0.6299605249474365 0.6299605249474365
133 1 2.519842099789746 0.0 1.259921049894873
134 1 3.149802624737182 0.6299605249474365 1.259921049894873
135 1 3.149802624737182 0.0 1.8898815748423095
136 1 2.519842099789746 0.6299605249474365 1.8898815748423095
137 1 2.519842099789746 0.0 2.519842099789746
138 1 3.149802624737182 0.6299605249474365 2.519842099789746
139 1 3.149802624737182 0.0 3.149802624737182
140 1 2.519842099789746 0.6299605249474365 3.149802624737182
141 1 2.519842099789746 0.0 3.779763149684619
142 1 3.149802624737182 0.6299605249474365 3.779763149684619
143 1 3.149802624737182 0.0 4.409723674632056
144 1 2.519842099789746 0.6299605249474365 4.409723674632056
145 1 2.519842099789746 1.259921049894873 0.0
146 1 3.149802624737182 1.8898815748423095 0.0
147 1 3.149802624737182 1.259921049894873 0.6299605249474365
148 1 2.519842099789746 1.8898815748423095 0.6299605249474365
149 1 2.519842099789746 1.259921049894873 1.259921049894873
150 1 3.149802624737182 1.8898815748423095 1.259921049894873
151 1 3.149802624737182 1.259921049894873 1.8898815748423095
152 1 2.519842099789746 1.8898815748423095 1.8898815748423095
153 1 2.519842099789746 1.259921049894873 2.519842099789746
154 1 3.149802624737182 1.8898815748423095 2.519842099789746
155 1 3.149802624737182 1.259921049894873 3.149802624737182
156 1 2.519842099789746 1.8898815748423095 3.149802624737182
157 1 2.519842099789746 1.259921049894873 3.779763149684619
158 1 3.149802624737182 1.8898815748423095 3.779763149684619
159 1 3.149802624737182 1.259921049894873 4.409723674632056
160 1 2.519842099789746 1.8898815748423095 4.409723674632056
161 1 2.519842099789746 2.519842099789746 0.0
162 1 3.149802624737182 3.149802624737182 0.0
163 1 3.149802624737182 2.519842099789746 0.6299605249474365
164 1 2.519842099789746 3.149802624737182 0.6299605249474365
165 1 2.519842099789746 2.519842099789746 1.259921049894873
166 1 3.149802624737182 3.149802624737182 1.259921049894873
167 1 3.149802624737182 2.519842099789746 1.8898815748423095
168 1 2.519842099789746 3.149802624737182 1.8898815748423095
169 1 2.519842099789746 2.519842099789746 2.519842099789746
170 1 3.149802624737182 3.149802624737182 2.519842099789746
171 1 3.149802624737182 2.519842099789746 3.149802624737182
172 1 2.519842099789746 3.149802624737182 3.149802624737182
173 1 2.519842099789746 2.519842099789746 3.779763149684619
174 1 3.149802624737182 3.149802624737182 3.779763149684619
175 1 3.149802624737182 2.519842099789746 4.409723674632056
176 1 2.519842099789746 3.149802624737182 4.409723674632056
177 1 2.519842099789746 3.779763149684619 0.0
178 1 3.149802624737182 4.409723674632056 0.0
179 1 3.149802624737182 3.779763149684619 0.6299605249474365
180 1 2.519842099789746 4.409723674632056 0.6299605249474365
181 1 2.519842099789746 3.779763149684619 1.259921049894873
182 1 3.149802624737182 4.409723674632056 1.259921049894873
183 1 3.149802624737182 3.779763149684619 1.8898815748423095
184 1 2.519842099789746 4.409723674632056 1.8898815748423095
185 1 2.519842099789746 3.779763149684619 2.519842099789746
186 1 3.149802624737182 4.409723674632056 2.519842099789746
187 1 3.149802624737182 3.779763149684619 3.149802624737182
188 1 2.519842099789746 4.409723674632056 3.149802624737182
189 1 2.519842099789746 3.779763149684619 3.779763149684619
190 1 3.149802624737182 4.409723674632056 3.779763149684619
191 1 3.149802624737182 3.779763149684619 4.409723674632056
192 1 2.519842099789746 4.409723674632056 4.409723674632056
193 1 3.779763149684619 0.0 0.0
194 1 4.409723674632056 0.6299605249474365 0.0
195 1 4.409723674632056 0.0 0.6299605249474365
196 1 3.779763149684619 0.6299605249474365 0.6299605249474365
197 1 3.779763149684619 0.0 1.259921049894873
198 1 4.409723674632056 0.6299605249474365 1.259921049894873
199 1 4.409723674632056 0.0 1.8898815748423095
200 1 3.779763149684619 0.6299605249474365 1.8898815748423095
201 1 3.779763149684619 0.0 2.519842099789746
202 1 4.409723674632056 0.6299605249474365 2.519842099789746
203 1 4.409723674632056 0.0 3.149802624737182
204 1 3.779763149684619 0.6299605249474365 3.149802624737182
205 1 3.779763149684619 0.0 3.779763149684619
206 1 4.409723674632056 0.6299605249474365 3.779763149684619
207 1 4.409723674632056 0.0 4.409723674632056
208 1 3.779763149684619 0.6299605249474365 4.409723674632056
209 1 3.779763149684619 1.259921049894873 0.0
210 1 4.409723674632056 1.8898815748423095 0.0
211 1 4.409723674632056 1.259921049894873 0.6299605249474365
212 1 3.779763149684619 1.8898815748423095 0.6299605249474365
213 1 3.779763149684619 1.259921049894873 1.259921049894873
214 1 4.409723674632056 1.8898815748423095 1.259921049894873
215 1 4.409723674632056 1.259921049894873 1.8898815748423095
216 1 3.779763149684619 1.8898815748423095 1.8898815748423095
217 1 3.779763149684619 1.259921049894873 2.519842099789746
218 1 4.409723674632056 1.8898815748423095 2.519842099789746
219 1 4.409723674632056 1.259921049894873 3.149802624737182
220 1 3.779763149684619 1.8898815748423095 3.149802624737182
221 1 3.779763149684619 1.259921049894873 3.779763149684619
222 1 4.409723674632056 1.8898815748423095 3.779763149684619
223 1 4.409723674632056 1.259921049894873 4.409723674632056
224 1 3.779763149684619 1.8898815748423095 4.409723674632056
225 1 3.779763149684619 2.519842099789746 0.0
226 1 4.409723674632056 3.149802624737182 0.0
227 1 4.409723674632056 2.519842099789746 0.6299605249474365
228 1 3.779763149684619 3.149802624737182 0.6299605249474365
229 1 3.779763149684619 2.519842099789746 1.259921049894873
230 1 4.409723674632056 3.149802624737182 1.259921049894873
231 1 4.409723674632056 2.519842099789746 1.8898815748423095
232 1 3.779763149684619 3.149802624737182 1.8898815748423095
233 1 3.779763149684619 2.519842099789746 2.519842099789746
234 1 4.409723674632056 3.149802624737182 2.519842099789746
235 1 4.409723674632056 2.519842099789746 3.149802624737182
236 1 3.779763149684619 3.149802624737182 3.149802624737182
237 1 3.779763149684619 2.519842099789746 3.779763149684619
238 1 4.409723674632056 3.149802624737182 3.779763149684619
239 1 4.409723674632056 2.519842099789746 4.409723674632056
240 1 3.779763149684619 3.149802624737182 4.409723674632056
241 1 3.779763149684619 3.779763149684619 0.0
242 1 4.409723674632056 4.409723674632056 0.0
243 1 4.409723674632056 3.779763149684619 0.6299605249474365
244 1 3.779763149684619 4.409723674632056 0.6299605249474365
245 1 3.779763149684619 3.779763149684619 1.259921049894873
246 1 4.409723674632056 4.409723674632056 1.259921049894873
247 1 4.409723674632056 3.779763149684619 1.8898815748423095
248 1 3.779763149684619 4.409723674632056 1.8898815748423095
249 1 3.779763149684619 3.779763149684619 2.519842099789746
250 1 4.409723674632056 4.409723674632056 2.519842099789746
251 1 4.409723674632056 3.779763149684619 3.149802624737182
252 1 3.779763149684619 4.409723674632056 3.149802624737182
253 1 3.779763149684619 3.779763149684619 3.779763149684619
254 1 4.409723674632056 4.409723674632056 3.779763149684619
255 1 4.409723674632056 3.779763149684619 4.409723674632056
256 1 3.779763149684619 4.409723674632056 4.409723674632056

Velocities

1 -0.9453550158268234 0.6336035621995771 0.35122957298148516
2 0.42973377498893744 0.17309072981268503 -0.34616217763854595
3 -0.0912050600493854 -0.6845588534537256 0.7176512716037136
4 -0.7471092359669824 0.8431946149310255 0.3411070171389139
5 -0.3261131084437225 -0.5481919083075056 -0.05559537110566247
6 -0.8874889993073858 -0.24964170411552444 0.984400316437293
7 -0.9311994662309033 -0.9825336898514135 -0.4316249256050242
8 0.5627462919408606 -0.9947607007398455 -0.8909272638251475
9 -0.6134331608660928 0.38786408760680524 0.43253583896124415
10 0.8488448175298959 -0.5500657763739193 0.2878201263414639
11 0.650448357708763 0.7690274403731633 0.4759821216105278
12 0.566349401054796 -0.7513792505430091 0.5951845240997384
13 -0.9229771620905274 0.2390135503109455 0.32834429213533234
14 -0.3401759218550308 -0.39520219848877136 0.13705063690196287
15 -0.4568198941926151 0.5261235977117821 0.6130264658878837
16 0.9763834383229879 0.5131144633511665 0.41066476319716827
17 -0.49701029519650425 0.17315015427416258 -0.5833099847393757
18 -0.21620214703596868 -0.46032582260354127 -0.37404253143559196
19 -0.28391831807000484 0.10128991070876159 0.29249616488254526
20 0.7717574775004861 -0.23134171112905644 0.07017557858029867
21 0.22586014705256058 -0.38989016925701014 0.34596176125584566
22 -0.5119634362920578 0.5337340747994263 0.5310980387470583
23 0.24521900996291618 -1.0254719369611576 -0.8726283763406477
24 0.5341310709186307 -0.108033303111572 0.45646765318838867
25 -0.27934880424418024 0.4611412369803408 0.7586563505287995
26 0.8167324915322034 0.4903852754251684 -0.8042542686043948
27 -0.5931806089372351 0.18328718702592706 -0.38907682921734077
28 1.0036344638293864 -0.1366070975497765 -0.2708157243034257
29 0.8588654662661874 -0.0763729697857628 -0.03314543087237774
30 -0.45883786938057564 -0.6640928167071208 0.10863211423147036
31 0.9350543517774104 -0.32736873367166697 -0.16271329824536515
32 0.5581770182051111 0.13361517948571555 -0.5282335038203956
33 0.29005844702518774 0.7763380902260005 -0.006972889874527804
34 -0.35714889674177147 -0.0021417933462165584 0.9136449240383067
35 0.2826145715753426 -0.4103074568721389 -0.6753481277144808
36 -0.014280537623934289 -0.729887247897559 0.6357989741050596
37 -0.9210571156676262 0.5297173921571422 0.6473281295201887
38 -0.5254943679952571 -0.011722072270932471 0.8092371678285246
39 -0.4512313188891219 0.5082459294755785 -0.6054025119883306
40 1.0344208521806533 -0.14729754032397369 0.12576275757475355
41 -0.4572813988943975 -0.42469480701919504 0.21145392363827845
42 -0.896524196243919 -0.8982728718290974 0.9655462465827003
43 0.22654005231352087 0.5812784697498806 -0.4816779057840541
44 -0.5381953233900316 0.2540635995710784 0.3242803713757283
45 0.14468678447889 -0.7039131424185202 -0.024436220631816257
46 0.926741156283797 -0.4391499126825772 -0.6815793640757182
47 -0.5433941895786056 0.9258231873498138 -0.9386187055723649
48 -0.14510042209396617 0.676516806318776 0.7903113791122629
49 0.8502818376683583 0.07518116348353565 0.2784847054069026
50 -0.15150911805401063 -0.19480858788324873 -0.34245181031268745
51 -0.5128647761040874 0.8541320845872166 -0.309747537078535
52 0.6473394995799913 -0.15946162639567774 -0.9581345421180982
53 -0.309654919667059 0.8798454968298745 -0.7739524685885795
54 -0.17967626828025124 -0.9529358580148061 -0.425911083910246
55 -0.17009890740327277 -0.5339671075278148 0.41977724198809696
56 -0.6160771766833482 0.17682958948098493 -0.8848078523616474
57 -0.29950627191444185 0.5651820513617628 0.26362464339421154
58 -0.34160894993338004 0.09855283411699711 -0.49703187496359025
59 -0.09749666480198545 0.5152429642574213 0.06285932164050335
60 0.9822240714951223 0.481642208955292 -0.9093794041517578
61 0.7935212588325953 0.33962119473513275 0.05833678435076341
62 0.05912552192492475 0.118373597383436 -0.33108290001506324
63 -0.10818880049828135 -0.3842742986910227 -0.18638763969685598
64 -0.5042437175977614 0.05417528432202634 0.5851757433254827
65 0.22714232712720134 0.30707580539525947 0.7103805152973186
66 -0.8546450250656876 -0.5108779041960693 -0.9242887665074428
67 -0.7664482187900317 -0.09098001432327829 -0.8336750232640329
68 1.028381749621844 -0.872142795021935 -0.966675502235472
69 0.7358479468264247 -0.03283108902978393 0.7214246807705387
70 -0.2491382170202136 -0.32171762322004016 -0.41151943929709467
71 -0.3846100410106445 -0.7747192547548672 -0.5895348997488816
72 0.03683445251542809 -0.2794022567737432 -0.5086916473191294
73 0.4151066944775244 -0.6381794216244271 -0.6327590595823398
74 0.8913193347396389 0.5289126862919452 -0.09968397676687978
75 -0.6559264721195344 -0.2016332031881235 0.9356925018416258
76 -0.8431824792611542 0.7609451809464091 -0.34270010570825704
77 -0.36740853607216656 -0.009179412511567508 -0.81674580395688
78 0.1405871472412175 0.7065753978989257 0.3716057069962211
79 0.9919380679610625 0.8959544436545052 0.6508366663386229
80 0.13865521782083673 0.10849070524641469 0.6616023025631697
81 0.6994154659999088 0.04375483118895074 -0.3417465190626727
82 0.49481153791204774 0.44041003799176937 -0.2600344396735852
83 0.72957810070993 -0.0418719435162066 -0.5484931586772503
84 0.7140585324102722 0.20333445264640282 -0.19038855559181986
85 0.25875177305237324 0.2758054601623473 -0.005022455150444732
86 1.0203810649444829 0.5257667325955105 -0.7810684454930712
87 -0.7258676767264001 0.6108699788659259 0.21467984773227336
88 0.5204948840141848 -0.5431538524856038 -0.40518176540252515
89 0.5508177188263137 0.30222079058566076 0.6446133112086834
90 0.30639702211546066 -0.1351697908637367 0.3526355951275266
91 0.48476075557633386 0.8489660934366717 0.3096420873302912
92 0.6928658231821201 0.7716130851283031 0.39787779983161853
93 0.5996062304243377 0.013486921598348967 0.5013953375088955
94 0.6146449066075526 0.6707437796831502 0.2081561827574048
95 -0.11205707704450125 -0.9075395963927962 0.10034871937696634
96 -0.6324566924079893 -0.498141884331757 -0.6541695161395984
97 0.3417569185340375 0.7666106206891591 0.40911059001551786
98 -0.05987753911083278 0.3161447472142246 0.9147963462196493
99 -0.2787471027163279 0.5536685101240183 0.30394980951622497
100 -0.47221209546600423 0.2726301762037239 -0.5769882680170542
101 0.6776119562460539 -0.860778011411056 -0.43805189456510285
102 -0.8619214933959312 -0.5538885426676049 -0.20750972729575598
103 -0.935649601517927 0.7657419411632646 -0.6961187619937941
104 -0.07734251620397199 0.16644497313621331 0.9895680450086799
105 0.5001686581685845 -0.5030739373728929 0.7902689425404112
106 0.6937031214377516 -0.6750201702590449 0.4329512743749935
107 -0.2738961696830699 0.010712455790330977 -0.667119024472355
108 -0.3847733455346844 -0.4288269323711259 -0.17294519678249262
109 0.2978058725845401 0.8886975651646928 -0.41611779768290114
110 1.0250057882291876 0.8898403337582 0.5659705242624928
111 0.5932146061384775 0.5358272561664469 0.053804107467485776
112 0.5936919692068998 -1.026701520061009 0.6900921252479075
113 0.41953015071691385 0.2686811578301548 0.7997645116795908
114 0.7040815933547242 -0.07755226991084252 -0.42012593848967406
115 -0.2914542951667682 -0.14586523751273972 0.5856647901645042
116 -0.34041777234554965 0.4444773113311472 -0.675523197870793
117 -0.930743914185012 -0.46797650348137687 0.7514460826708198
118 0.08666779812975305 -0.9324203735601556 0.2980403108832046
119 -0.38862905239400963 0.7552541623137826 -0.6221312854676522
120 0.17556806709899148 0.2623027484599981 0.3930074555536547
121 0.49764853599228115 -0.825379023603171 0.36890389127399614
122 -0.17063442383776833 0.7202639934565164 0.2884425814704368
123 -0.8316121349612986 0.03150728081068055 -0.9430141187403509
124 -0.11123138308519138 0.5149619400525737 -0.1535442289283808
125 -0.8760934967942713 0.5177410659342095 0.7750811046981045
126 -0.40282716984675265 -0.45828864750782905 -0.1867902367307239
127 0.18313194143235784 0.3669354507285517 0.20898563093050362
128 0.9394216714939541 -0.7878406845058258 0.21527502817792457
129 -0.7815673646546559 -1.0240081222931683 -0.030931370384100747
130 0.5550106883462602 -0.4750629559724898 -0.4467493472345403
131 0.20043514934561607 -0.2417973149066076 0.4190355978985567
132 0.4017995093161513 -0.32972220070240643 0.7639761792735655
133 0.4253928753542467 0.4303440319740114 -0.31202217037550817
134 -0.6170670274931611 0.42692426391563243 0.13479077280518628
135 -0.8987321928804612 0.7966434958500662 -0.12331938713826916
136 0.9115835542796968 -0.17834870729909957 0.028382859086165908
137 0.19640099804303174 -0.6141945129468523 0.43345064069704686
138 0.07800245441755198 0.7204789781685709 0.9026120599243861
139 -0.14305041640854482 0.6656698643612272 -0.7539831913813271
140 -0.9566999295787324 -0.8498424885489816 0.9523353135748047
141 -0.8818080180894399 0.5950455560284827 -0.7989520120957745
142 0.8536102182932965 -0.46361168546203324 0.40491279855238327
143 0.12032863173612655 0.3313572400077033 -0.7478976424064887
144 0.011346638850074961 -0.9287217108275717 0.2071417832484226
145 0.8856021213078842 0.18874762530277545 -0.21957042441329208
146 -0.042058042566080325 -0.8366370878071129 -0.33715315480790764
147 0.3175201321171129 0.5798692342872583 0.5541645886291489
148 -0.29924598674982666 -0.778240331444667 -0.3616845054541791
149 -0.2909497636058666 -0.6333842123529069 0.5145154087612787
150 0.11008612325490356 0.6329123145319547 -0.20865780840287404
151 -0.24416278764264815 0.7765844826735305 -0.22022226955936938
152 0.5805393140963406 0.4754033026675716 -0.7410695703861623
153 0.05431327497824538 -0.7312115130191684 -0.904181578493362
154 0.4664276359994087 0.9102705038973918 -0.7936639359550766
155 0.9109839641504198 0.6086547637178249 0.3516154303292067
156 -0.8801428081381615 -0.19733561376483133 0.09153291084255556
157 0.3996805340467576 -0.3260627066374048 0.9837061969089929
158 -0.4926043402665163 -1.0021903345325747 -0.47862671425094105
159 -0.583147634441596 -0.49847897228039517 0.36409932010377877
160 0.4241781013202977 0.47985406032835465 0.2734711005209134
161 -0.07838809094949913 -0.08539823437576166 0.18041666237485335
162 -0.46133196009962857 -0.9846587830966781 0.39278739779493677
163 -0.9392671729672599 -0.7779571589837281 -0.5112943906417058
164 0.3605428828345683 -0.5479169721643621 0.5849909335035248
165 0.8205330913039113 -0.6758142776250821 0.5168651959284714
166 -0.5746192068595706 0.101106904724661 0.7615855849046942
167 0.37891308625519443 -0.3094006642113497 -0.7234095591159986
168 -0.4253289197031233 0.3707859449793006 -0.2729629617331466
169 0.7446844422811141 0.5875191938718504 0.49911145396096224
170 0.8118023605708242 -0.6678840602352193 -0.3713242308984013
171 -0.35571872724026216 0.9598036217587095 -1.0023783444174708
172 -0.9441714712664182 -0.23799711651558642 -0.13179522812825215
173 -0.4003513841574044 -0.3327958998804369 -0.11870629873375925
174 -0.8737043420368678 0.5641871545440865 -0.5127875979658547
175 0.17759661006390753 0.7449315607083326 -0.0202737244071358
176 -0.9244776059299968 -0.006945826626948315 0.8371741413483349
177 -0.19222974163059708 -0.7572251903376813 0.3569665426848472
178 -0.1870136659985701 -0.2460724251710168 0.3816072320504724
179 -0.6615828103001944 -0.1307211839400212 -0.0931929985108899
180 -0.6476475188841402 0.7806137931110176 -0.6600064432750417
181 -0.5983390939622997 -0.02818055868088465 -0.09908979411615147
182 -0.6293001207536042 0.9051315911428955 -0.7196965713765755
183 -0.3989784163607956 0.6641087334799355 0.19298412786134847
184 0.3090478673418567 -0.18777363184947593 -0.7700710739487058
185 0.5588198904239485 -0.4572064606270748 -0.9012318399148702
186 0.2817763343369753 -0.6603851367451631 -0.35843208034827767
187 -0.9319557146731456 -0.3247770673230551 -0.62425373919614
188 0.255212585740976 -0.4768529904414852 -0.6480117544041397
189 0.08728088256872706 -0.5966868556587243 -0.8333990337287591
190 0.7059004479778628 -0.7849371093510223 -0.16813400804024867
191 0.132441583930544 -0.8387460279684126 -0.5918443072677846
192 0.8962449740899399 -0.9290631865621745 0.9161744984831097
193 0.005448502774813499 0.4531788466098231 0.6929011321308358
194 0.7305706732655615 0.5823076402739537 -0.4061738815421787
195 -0.08910051282857397 0.8190834696436226 0.6369488975734174
196 -0.7674087292702956 -0.5457527544111039 -0.04913622346740175
197 0.07626006115669486 -0.9170944607517025 -0.1895352089046249
198 0.1092734571214196 -0.9753083630849403 0.694614859291917
199 0.04852248817716935 0.17378914927065348 -0.3588633807019741
200 0.7120491573741774 -0.2576517750441675 -0.8143369580920476
201 -0.4746047208441548 0.7566636374202472 0.8653642782641655
202 -0.32421338608968225 -0.28778376973165287 0.2650439128682647
203 0.043656851001476135 -0.49483251602649825 0.35826470671078203
204 0.49717789555362596 0.3965427885092635 -0.10724759762778534
205 -0.5482029742298329 -0.3326725533775562 -0.7435090259994497
206 -0.19141215093449365 0.7686659791548794 0.0091606375278608
207 -0.3082849835326588 0.6373859013957298 -0.2939553535980868
208 0.8737495135008542 -0.3254925708325672 -0.27647711006704423
209 -0.8094961333871256 0.9472885191516672 -0.754340641769091
210 -0.41913357123583145 0.2529030106462632 0.1650417946042875
211 0.5848530860260848 -0.7566272388703129 0.20354378770080753
212 0.12633489736488285 0.5298407805302735 0.7852211150013426
213 0.45505010678809793 0.3571476782397286 0.2679868184870686
214 0.6232901668291948 -0.9496665657021027 0.3726231264663826
215 -0.7040744658537372 -0.5246483257711158 -0.7530443099024886
216 0.25143160082922594 -0.8345348148150448 -0.999903517543212
217 0.5155611232390065 0.6744152160036513 -0.018126294670435677
218 0.9247854783786824 0.3989771417947 0.422909960930139
219 0.8114460478155714 -0.9645572191340889 0.20660582959883203
220 -0.00047835324883789554 0.28683617468882805 -0.30976357505411123
221 1.0200439625515494 0.45277072088004144 0.8014409714430573
222 -0.6454292424921417 -0.13208022225674976 -0.6390481598717714
223 0.21211124657866304 -0.8016323516533209 0.39018785459320027
224 -0.8363134627528719 -0.19357820378130708 0.3402454177813945
225 -0.8512053019874142 0.8977157357627218 0.9897602282958502
226 0.683188858938294 -0.10342584099033314 0.7559658956238497
227 -0.6961278103360946 -0.24649614554684052 -0.6469086557874493
228 0.3876419868825894 0.5532405077756685 0.3522509193153023
229 -0.8507153494549833 -0.3760615237246866 0.846832997572943
230 -0.1837259345286057 0.6746446605657553 -0.22606947634933358
231 0.9801185722538388 -0.8707805517581589 -0.15903999073272354
232 -0.03744272433311653 0.8897228654857258 -0.9930694947981109
233 -0.5002169896900972 0.34152912954897474 -0.29345731903600636
234 0.7632866126344096 0.567660161276648 -0.47309235347353207
235 -0.9389943039639794 0.4758608071322862 -0.42375951467192663
236 0.5721618606037708 -0.7988540724299228 -0.04787267332384414
237 0.09156464697969562 -0.6421329483598343 0.13730914940901665
238 -0.6096523032878363 -0.10224672730774065 0.18723459652510546
239 -0.5437774186077065 0.6262337072790044 0.9041001167070677
240 0.6045011368973483 -0.7482450976943457 -0.1581989618720023
241 -0.46467899848839717 0.17167558971640118 -0.4163215777439564
242 -0.149337771340523 0.013444275387468951 -0.6970552223574564
243 0.05172543123737809 -0.09336159376553554 0.12210965151867105
244 -0.6106732371090862 0.19944308492065443 -0.05039044412304915
245 -0.7943353150110137 -0.1880557230731933 -0.053573837101032126
246 -0.36058897649202953 -0.535226202408898 0.24647371095894968
247 0.6773211901815483 0.9489971580130233 -0.04575398426580944
248 -0.7086288130257123 0.7756333965715702 0.07737030432928595
249 -0.11392275510272128 0.7312445413473841 -0.5097053447673083
250 0.06074326692738134 -0.36218470765786825 0.9742299241766024