Position Data

16384 atoms
1 atom types

0.0 40.24351450871698 xlo xhi
0.0 20.12175725435849 ylo yhi
0.0 20.12175725435849 zlo zhi

Atoms

1 1 0.0 0.0 0.0
2 1 0.6288049141987028 0.6288049141987028 0.0
3 1 0.6288049141987028 0.0 0.6288049141987028
4 1 0.0 0.6288049141987028 0.6288049141987028
5 1 0.0 0.0 1.2576098283974055
6 1 0.6288049141987028 0.6288049141987028 1.2576098283974055
7 1 0.6288049141987028 0.0 1.8864147425961084
8 1 0.0 0.6288049141987028 1.8864147425961084
9 1 0.0 0.0 2.515219656794811
10 1 0.6288049141987028 0.6288049141987028 2.515219656794811
11 1 0.6288049141987028 0.0 3.1440245709935137
12 1 0.0 0.6288049141987028 3.1440245709935137
13 1 0.0 0.0 3.772829485192217
14 1 0.6288049141987028 0.6288049141987028 3.772829485192217
15 1 0.6288049141987028 0.0 4.40163439939092
16 1 0.0 0.6288049141987028 4.40163439939092
17 1 0.0 0.0 5.030439313589622
18 1 0.6288049141987028 0.6288049141987028 5.030439313589622
19 1 0.6288049141987028 0.0 5.659244227788325
20 1 0.0 0.6288049141987028 5.659244227788325
21 1 0.0 0.0 6.2880491419870275
22 1 0.6288049141987028 0.6288049141987028 6.2880491419870275
23 1 0.6288049141987028 0.0 6.916854056185731
24 1 0.0 0.6288049141987028 6.916854056185731
25 1 0.0 0.0 7.545658970384434
26 1 0.6288049141987028 0.6288049141987028 7.545658970384434
27 1 0.6288049141987028 0.0 8.174463884583137
28 1 0.0 0.6288049141987028 8.174463884583137
29 1 0.0 0.0 8.803268798781838
30 1 0.6288049141987028 0.6288049141987028 8.803268798781838
31 1 0.6288049141987028 0.0 9.432073712980541
32 1 0.0 0.6288049141987028 9.432073712980541
33 1 0.0 0.0 10.060878627179244
34 1 0.6288049141987028 0.6288049141987028 10.060878627179244
35 1 0.6288049141987028 0.0 10.689683541377947
36 1 0.0 0.6288049141987028 10.689683541377947
37 1 0.0 0.0 11.31848845557665
38 1 0.6288049141987028 0.6288049141987028 11.31848845557665
39 1 0.6288049141987028 0.0 11.947293369775354
40 1 0.0 0.6288049141987028 11.947293369775354
41 1 0.0 0.0 12.576098283974055
42 1 0.6288049141987028 0.6288049141987028 12.576098283974055
43 1 0.6288049141987028 0.0 13.204903198172758
44 1 0.0 0.6288049141987028 13.204903198172758
45 1 0.0 0.0 13.833708112371461
46 1 0.6288049141987028 0.6288049141987028 13.833708112371461
47 1 0.6288049141987028 0.0 14.462513026570164
48 1 0.0 0.6288049141987028 14.462513026570164
49 1 0.0 0.0 15.091317940768867
50 1 0.6288049141987028 0.6288049141987028 15.091317940768867
51 1 0.6288049141987028 0.0 15.72012285496757
52 1 0.0 0.6288049141987028 15.72012285496757
53 1 0.0 0.0 16.348927769166274
54 1 0.6288049141987028 0.6288049141987028 16.348927769166274
55 1 0.6288049141987028 0.0 16.977732683364977
56 1 0.0 0.6288049141987028 16.977732683364977
57 1 0.0 0.0 17.606537597563676
58 1 0.6288049141987028 0.6288049141987028 17.606537597563676
59 1 0.6288049141987028 0.0 18.23534251176238
60 1 0.0 0.6288049141987028 18.23534251176238
61 1 0.0 0.0 18.864147425961082
62 1 0.6288049141987028 0.6288049141987028 18.864147425961082
63 1 0.6288049141987028 0.0 19.492952340159786
64 1 0.0 0.6288049141987028 19.492952340159786
65 1 0.0 1.2576098283974055 0.0
66 1 0.6288049141987028 1.8864147425961084 0.0
67 1 0.6288049141987028 1.2576098283974055 0.6288049141987028
68 1 0.0 1.8864147425961084 0.6288049141987028
69 1 0.0 1.2576098283974055 1.2576098283974055
70 1 0.6288049141987028 1.8864147425961084 1.2576098283974055
71 1 0.6288049141987028 1.2576098283974055 1.8864147425961084
72 1 0.0 1.8864147425961084 1.8864147425961084
73 1 0.0 1.2576098283974055 2.515219656794811
74 1 0.6288049141987028 1.8864147425961084 2.515219656794811
75 1 0.6288049141987028 1.2576098283974055 3.1440245709935137
76 1 0.0 1.8864147425961084 3.1440245709935137
77 1 0.0 1.2576098283974055 3.772829485192217
78 1 0.6288049141987028 1.8864147425961084 3.772829485192217
79 1 0.6288049141987028 1.2576098283974055 4.40163439939092
80 1 0.0 1.8864147425961084 4.40163439939092
81 1 0.0 1.2576098283974055 5.030439313589622
82 1 0.6288049141987028 1.8864147425961084 5.030439313589622
83 1 0.6288049141987028 1.2576098283974055 5.659244227788325
84 1 0.0 1.8864147425961084 5.659244227788325
85 1 0.0 1.2576098283974055 6.2880491419870275
86 1 0.6288049141987028 1.8864147425961084 6.2880491419870275
87 1 0.6288049141987028 1.2576098283974055 6.916854056185731
88 1 0.0 1.8864147425961084 6.916854056185731
89 1 0.0 1.2576098283974055 7.545658970384434
90 1 0.6288049141987028 1.8864147425961084 7.545658970384434
91 1 0.6288049141987028 1.2576098283974055 8.174463884583137
92 1 0.0 1.8864147425961084 8.174463884583137
93 1 0.0 1.2576098283974055 8.803268798781838
94 1 0.6288049141987028 1.8864147425961084 8.803268798781838
95 1 0.6288049141987028 1.2576098283974055 9.432073712980541
96 1 0.0 1.8864147425961084 9.432073712980541
97 1 0.0 1.2576098283974055 10.060878627179244
98 1 0.6288049141987028 1.8864147425961084 10.060878627179244
99 1 0.6288049141987028 1.2576098283974055 10.689683541377947
100 1 0.0 1.8864147425961084 10.689683541377947
101 1 0.0 1.2576098283974055 11.31848845557665
102 1 0.6288049141987028 1.8864147425961084 11.31848845557665
103 1 0.6288049141987028 1.2576098283974055 11.947293369775354
104 1 0.0 1.8864147425961084 11.947293369775354
105 1 0.0 1.2576098283974055 12.576098283974055
106 1 0.6288049141987028 1.8864147425961084 12.576098283974055
107 1 0.6288049141987028 1.2576098283974055 13.204903198172758
108 1 0.0 1.8864147425961084 13.204903198172758
109 1 0.0 1.2576098283974055 13.833708112371461
110 1 0.6288049141987028 1.8864147425961084 13.833708112371461
111 1 0.6288049141987028 1.2576098283974055 14.462513026570164
112 1 0.0 1.8864147425961084 14.462513026570164
113 1 0.0 1.2576098283974055 15.091317940768867
114 1 0.6288049141987028 1.8864147425961084 15.091317940768867
115 1 0.6288049141987028 1.2576098283974055 15.72012285496757
116 1 0.0 1.8864147425961084 15.72012285496757
117 1 0.0 1.2576098283974055 16.348927769166274
118 1 0.6288049141987028 1.8864147425961084 16.348927769166274
119 1 0.6288049141987028 1.2576098283974055 16.977732683364977
120 1 0.0 1.8864147425961084 16.977732683364977
121 1 0.0 1.2576098283974055 17.606537597563676
122 1 0.6288049141987028 1.8864147425961084 17.606537597563676
123 1 0.6288049141987028 1.2576098283974055 18.23534251176238
124 1 0.0 1.8864147425961084 18.23534251176238
125 1 0.0 1.2576098283974055 18.864147425961082
126 1 0.6288049141987028 1.8864147425961084 18.864147425961082
127 1 0.6288049141987028 1.2576098283974055 19.492952340159786
128 1 0.0 1.8864147425961084 19.492952340159786
129 1 0.0 2.515219656794811 0.0
130 1 0.6288049141987028 3.1440245709935137 0.0
131 1 0.6288049141987028 2.515219656794811 0.6288049141987028
132 1 0.0 3.1440245709935137 0.6288049141987028
133 1 0.0 2.515219656794811 1.2576098283974055
134 1 0.6288049141987028 3.1440245709935137 1.2576098283974055
135 1 0.6288049141987028 2.515219656794811 1.8864147425961084
136 1 0.0 3.1440245709935137 1.8864147425961084
137 1 0.0 2.515219656794811 2.515219656794811
138 1 0.6288049141987028 3.1440245709935137 2.515219656794811
139 1 0.6288049141987028 2.515219656794811 3.1440245709935137
140 1 0.0 3.1440245709935137 3.1440245709935137
141 1 0.0 2.515219656794811 3.772829485192217
142 1 0.6288049141987028 3.1440245709935137 3.772829485192217
143 1 0.6288049141987028 2.515219656794811 4.40163439939092
144 1 0.0 3.1440245709935137 4.40163439939092
145 1 0.0 2.515219656794811 5.030439313589622
146 1 0.6288049141987028 3.1440245709935137 5.030439313589622
147 1 0.6288049141987028 2.515219656794811 5.659244227788325
148 1 0.0 3.1440245709935137 5.659244227788325
149 1 0.0 2.515219656794811 6.2880491419870275
150 1 0.6288049141987028 3.1440245709935137 6.2880491419870275
151 1 0.6288049141987028 2.515219656794811 6.916854056185731
152 1 0.0 3.1440245709935137 6.916854056185731
153 1 0.0 2.515219656794811 7.545658970384434
154 1 0.6288049141987028 3.1440245709935137 7.545658970384434
155 1 0.6288049141987028 2.515219656794811 8.174463884583137
156 1 0.0 3.1440245709935137 8.174463884583137
157 1 0.0 2.515219656794811 8.803268798781838
158 1 0.6288049141987028 3.1440245709935137 8.803268798781838
159 1 0.6288049141987028 2.515219656794811 9.432073712980541
160 1 0.0 3.1440245709935137 9.432073712980541
161 1 0.0 2.515219656794811 10.060878627179244
162 1 0.6288049141987028 3.1440245709935137 10.060878627179244
163 1 0.6288049141987028 2.515219656794811 10.689683541377947
164 1 0.0 3.1440245709935137 10.689683541377947
165 1 0.0 2.515219656794811 11.31848845557665
166 1 0.6288049141987028 3.1440245709935137 11.31848845557665
167 1 0.6288049141987028 2.515219656794811 11.947293369775354
168 1 0.0 3.1440245709935137 11.947293369775354
169 1 0.0 2.515219656794811 12.576098283974055
170 1 0.6288049141987028 3.1440245709935137 12.576098283974055
171 1 0.6288049141987028 2.515219656794811 13.204903198172758
172 1 0.0 3.1440245709935137 13.204903198172758
173 1 0.0 2.515219656794811 13.833708112371461
174 1 0.6288049141987028 3.1440245709935137 13.833708112371461
175 1 0.6288049141987028 2.515219656794811 14.462513026570164
176 1 0.0 3.1440245709935137 14.462513026570164
177 1 0.0 2.515219656794811 15.091317940768867
178 1 0.6288049141987028 3.1440245709935137 15.091317940768867
179 1 0.6288049141987028 2.515219656794811 15.72012285496757
180 1 0.0 3.1440245709935137 15.72012285496757
181 1 0.0 2.515219656794811 16.348927769166274
182 1 0.6288049141987028 3.1440245709935137 16.348927769166274
183 1 0.6288049141987028 2.515219656794811 16.977732683364977
184 1 0.0 3.1440245709935137 16.977732683364977
185 1 0.0 2.515219656794811 17.606537597563676
186 1 0.6288049141987028 3.1440245709935137 17.606537597563676
187 1 0.6288049141987028 2.515219656794811 18.23534251176238
188 1 0.0 3.1440245709935137 18.23534251176238
189 1 0.0 2.515219656794811 18.864147425961082
190 1 0.6288049141987028 3.1440245709935137 18.864147425961082
191 1 0.6288049141987028 2.515219656794811 19.492952340159786
192 1 0.0 3.1440245709935137 19.492952340159786
193 1 0.0 3.772829485192217 0.0
194 1 0.6288049141987028 4.40163439939092 0.0
195 1 0.6288049141987028 3.772829485192217 0.6288049141987028
196 1 0.0 4.40163439939092 0.6288049141987028
197 1 0.0 3.772829485192217 1.2576098283974055
198 1 0.6288049141987028 4.40163439939092 1.2576098283974055
199 1 0.6288049141987028 3.772829485192217 1.8864147425961084
200 1 0.0 4.40163439939092 1.8864147425961084
201 1 0.0 3.772829485192217 2.515219656794811
202 1 0.6288049141987028 4.40163439939092 2.515219656794811
203 1 0.6288049141987028 3.772829485192217 3.1440245709935137
204 1 0.0 4.40163439939092 3.1440245709935137
205 1 0.0 3.772829485192217 3.772829485192217
206 1 0.6288049141987028 4.40163439939092 3.772829485192217
207 1 0.6288049141987028 3.772829485192217 4.40163439939092
208 1 0.0 4.40163439939092 4.40163439939092
209 1 0.0 3.772829485192217 5.030439313589622
210 1 0.6288049141987028 4.40163439939092 5.030439313589622
211 1 0.6288049141987028 3.772829485192217 5.659244227788325
212 1 0.0 4.40163439939092 5.659244227788325
213 1 0.0 3.772829485192217 6.2880491419870275
214 1 0.6288049141987028 4.40163439939092 6.2880491419870275
215 1 0.6288049141987028 3.772829485192217 6.916854056185731
216 1 0.0 4.40163439939092 6.916854056185731
217 1 0.0 3.772829485192217 7.545658970384434
218 1 0.6288049141987028 4.40163439939092 7.545658970384434
219 1 0.6288049141987028 3.772829485192217 8.174463884583137
220 1 0.0 4.40163439939092 8.174463884583137
221 1 0.0 3.772829485192217 8.803268798781838
222 1 0.6288049141987028 4.40163439939092 8.803268798781838
223 1 0.6288049141987028 3.772829485192217 9.432073712980541
224 1 0.0 4.40163439939092 9.432073712980541
225 1 0.0 3.772829485192217 10.060878627179244
226 1 0.6288049141987028 4.40163439939092 10.060878627179244
227 1 0.6288049141987028 3.772829485192217 10.689683541377947
228 1 0.0 4.40163439939092 10.689683541377947
229 1 0.0 3.772829485192217 11.31848845557665
230 1 0.6288049141987028 4.40163439939092 11.31848845557665
231 1 0.6288049141987028 3.772829485192217 11.947293369775354
232 1 0.0 4.40163439939092 11.947293369775354
233 1 0.0 3.772829485192217 12.576098283974055
234 1 0.6288049141987028 4.40163439939092 12.576098283974055
235 1 0.6288049141987028 3.772829485192217 13.204903198172758
236 1 0.0 4.40163439939092 13.204903198172758
237 1 0.0 3.772829485192217 13.833708112371461
238 1 0.6288049141987028 4.40163439939092 13.833708112371461
239 1 0.6288049141987028 3.772829485192217 14.462513026570164
240 1 0.0 4.40163439939092 14.462513026570164
241 1 0.0 3.772829485192217 15.091317940768867
242 1 0.6288049141987028 4.40163439939092 15.091317940768867
243 1 0.6288049141987028 3.772829485192217 15.72012285496757
244 1 0.0 4.40163439939092 15.72012285496757
245 1 0.0 3.772829485192217 16.348927769166274
246 1 0.6288049141987028 4.40163439939092 16.348927769166274
247 1 0.6288049141987028 3.772829485192217 16.977732683364977
248 1 0.0 4.40163439939092 16.977732683364977
249 1 0.0 3.772829485192217 17.606537597563676
250 1 0.6288049141987028 4.40163439939092 17.606537597563676
251 1 0.6288049141987028 3.772829485192217 18.23534251176238
252 1 0.0 4.40163439939092 18.23534251176238
253 1 0.0 3.772829485192217 18.864147425961082
254 1 0.6288049141987028 4.40163439939092 18.864147425961082
255 1 0.6288049141987028 3.772829485192217 19.492952340159786
256 1 0.0 4.40163439939092 19.492952340159786
257 1 0.0 5.030439313589622 0.0
258 1 0.6288049141987028 5.659244227788325 0.0
259 1 0.6288049141987028 5.030439313589622 0.6288049141987028
260 1 0.0 5.659244227788325 0.6288049141987028
261 1 0.0 5.030439313589622 1.2576098283974055
262 1 0.6288049141987028 5.659244227788325 1.2576098283974055
263 1 0.6288049141987028 5.030439313589622 1.8864147425961084
264 1 0.0 5.659244227788325 1.8864147425961084
265 1 0.0 5.030439313589622 2.515219656794811
266 1 0.6288049141987028 5.659244227788325 2.515219656794811
267 1 0.6288049141987028 5.030439313589622 3.1440245709935137
268 1 0.0 5.659244227788325 3.1440245709935137
269 1 0.0 5.030439313589622 3.772829485192217
270 1 0.6288049141987028 5.659244227788325 3.772829485192217
271 1 0.6288049141987028 5.030439313589622 4.40163439939092
272 1 0.0 5.659244227788325 4.40163439939092
273 1 0.0 5.030439313589622 5.030439313589622
274 1 0.6288049141987028 5.659244227788325 5.030439313589622
275 1 0.6288049141987028 5.030439313589622 5.659244227788325
276 1 0.0 5.659244227788325 5.659244227788325
277 1 0.0 5.030439313589622 6.2880491419870275
278 1 0.6288049141987028 5.659244227788325 6.2880491419870275
279 1 0.6288049141987028 5.030439313589622 6.916854056185731
280 1 0.0 5.659244227788325 6.916854056185731
281 1 0.0 5.030439313589622 7.545658970384434
282 1 0.6288049141987028 5.659244227788325 7.545658970384434
283 1 0.6288049141987028 5.030439313589622 8.174463884583137
284 1 0.0 5.659244227788325 8.174463884583137
285 1 0.0 5.030439313589622 8.803268798781838
286 1 0.6288049141987028 5.659244227788325 8.803268798781838
287 1 0.6288049141987028 5.030439313589622 9.432073712980541
288 1 0.0 5.659244227788325 9.432073712980541
289 1 0.0 5.030439313589622 10.060878627179244
290 1 0.6288049141987028 5.659244227788325 10.060878627179244
291 1 0.6288049141987028 5.030439313589622 10.689683541377947
292 1 0.0 5.659244227788325 10.689683541377947
293 1 0.0 5.030439313589622 11.31848845557665
294 1 0.6288049141987028 5.659244227788325 11.31848845557665
295 1 0.6288049141987028 5.030439313589622 11.947293369775354
296 1 0.0 5.659244227788325 11.947293369775354
297 1 0.0 5.030439313589622 12.576098283974055
298 1 0.6288049141987028 5.659244227788325 12.576098283974055
299 1 0.6288049141987028 5.030439313589622 13.204903198172758
300 1 0.0 5.659244227788325 13.204903198172758
301 1 0.0 5.030439313589622 13.833708112371461
302 1 0.6288049141987028 5.659244227788325 13.833708112371461
303 1 0.6288049141987028 5.030439313589622 14.462513026570164
304 1 0.0 5.659244227788325 14.462513026570164
305 1 0.0 5.030439313589622 15.091317940768867
306 1 0.6288049141987028 5.659244227788325 15.091317940768867
307 1 0.6288049141987028 5.030439313589622 15.72012285496757
308 1 0.0 5.659244227788325 15.72012285496757
309 1 0.0 5.030439313589622 16.348927769166274
310 1 0.6288049141987028 5.659244227788325 16.348927769166274
311 1 0.6288049141987028 5.030439313589622 16.977732683364977
312 1 0.0 5.659244227788325 16.977732683364977
313 1 0.0 5.030439313589622 17.606537597563676
314 1 0.6288049141987028 5.659244227788325 17.606537597563676
315 1 0.6288049141987028 5.030439313589622 18.23534251176238
316 1 0.0 5.659244227788325 18.23534251176238
317 1 0.0 5.030439313589622 18.864147425961082
318 1 0.6288049141987028 5.659244227788325 18.864147425961082
319 1 0.6288049141987028 5.030439313589622 19.492952340159786
320 1 0.0 5.659244227788325 19.492952340159786
321 1 0.0 6.2880491419870275 0.0
322 1 0.6288049141987028 6.916854056185731 0.0
323 1 0.6288049141987028 6.2880491419870275 0.6288049141987028
324 1 0.0 6.916854056185731 0.6288049141987028
325 1 0.0 6.2880491419870275 1.2576098283974055
326 1 0.6288049141987028 6.916854056185731 1.2576098283974055
327 1 0.6288049141987028 6.2880491419870275 1.8864147425961084
328 1 0.0 6.916854056185731 1.8864147425961084
329 1 0.0 6.2880491419870275 2.515219656794811
330 1 0.6288049141987028 6.916854056185731 2.515219656794811
331 1 0.6288049141987028 6.2880491419870275 3.1440245709935137
332 1 0.0 6.916854056185731 3.1440245709935137
333 1 0.0 6.2880491419870275 3.772829485192217
334 1 0.6288049141987028 6.916854056185731 3.772829485192217
335 1 0.6288049141987028 6.2880491419870275 4.40163439939092
336 1 0.0 6.916854056185731 4.40163439939092
337 1 0.0 6.2880491419870275 5.030439313589622
338 1 0.6288049141987028 6.916854056185731 5.030439313589622
339 1 0.6288049141987028 6.2880491419870275 5.659244227788325
340 1 0.0 6.916854056185731 5.659244227788325
341 1 0.0 6.2880491419870275 6.2880491419870275
342 1 0.6288049141987028 6.916854056185731 6.2880491419870275
343 1 0.6288049141987028 6.2880491419870275 6.916854056185731
344 1 0.0 6.916854056185731 6.916854056185731
345 1 0.0 6.2880491419870275 7.545658970384434
346 1 0.6288049141987028 6.916854056185731 7.545658970384434
347 1 0.6288049141987028 6.2880491419870275 8.174463884583137
348 1 0.0 6.916854056185731 8.174463884583137
349 1 0.0 6.2880491419870275 8.803268798781838
350 1 0.6288049141987028 6.916854056185731 8.803268798781838
351 1 0.6288049141987028 6.2880491419870275 9.432073712980541
352 1 0.0 6.916854056185731 9.432073712980541
353 1 0.0 6.2880491419870275 10.060878627179244
354 1 0.6288049141987028 6.916854056185731 10.060878627179244
355 1 0.6288049141987028 6.2880491419870275 10.689683541377947
356 1 0.0 6.916854056185731 10.689683541377947
357 1 0.0 6.2880491419870275 11.31848845557665
358 1 0.6288049141987028 6.916854056185731 11.31848845557665
359 1 0.6288049141987028 6.2880491419870275 11.947293369775354
360 1 0.0 6.916854056185731 11.947293369775354
361 1 0.0 6.2880491419870275 12.576098283974055
362 1 0.6288049141987028 6.916854056185731 12.576098283974055
363 1 0.6288049141987028 6.2880491419870275 13.204903198172758
364 1 0.0 6.916854056185731 13.204903198172758
365 1 0.0 6.2880491419870275 13.833708112371461
366 1 0.6288049141987028 6.916854056185731 13.833708112371461
367 1 0.6288049141987028 6.2880491419870275 14.462513026570164
368 1 0.0 6.916854056185731 14.462513026570164
369 1 0.0 6.2880491419870275 15.091317940768867
370 1 0.6288049141987028 6.916854056185731 15.091317940768867
371 1 0.6288049141987028 6.2880491419870275 15.72012285496757
372 1 0.0 6.916854056185731 15.72012285496757
373 1 0.0 6.2880491419870275 16.348927769166274
374 1 0.6288049141987028 6.916854056185731 16.348927769166274
375 1 0.6288049141987028 6.2880491419870275 16.977732683364977
376 1 0.0 6.916854056185731 16.977732683364977
377 1 0.0 6.2880491419870275 17.606537597563676
378 1 0.6288049141987028 6.916854056185731 17.606537597563676
379 1 0.6288049141987028 6.2880491419870275 18.23534251176238
380 1 0.0 6.916854056185731 18.23534251176238
381 1 0.0 6.2880491419870275 18.864147425961082
382 1 0.6288049141987028 6.916854056185731 18.864147425961082
383 1 0.6288049141987028 6.2880491419870275 19.492952340159786
384 1 0.0 6.916854056185731 19.492952340159786
385 1 0.0 7.545658970384434 0.0
386 1 0.6288049141987028 8.174463884583137 0.0
387 1 0.6288049141987028 7.545658970384434 0.6288049141987028
388 1 0.0 8.174463884583137 0.6288049141987028
389 1 0.0 7.545658970384434 1.2576098283974055
390 1 0.6288049141987028 8.174463884583137 1.2576098283974055
391 1 0.6288049141987028 7.545658970384434 1.8864147425961084
392 1 0.0 8.174463884583137 1.8864147425961084
393 1 0.0 7.545658970384434 2.515219656794811
394 1 0.6288049141987028 8.174463884583137 2.515219656794811
395 1 0.6288049141987028 7.545658970384434 3.1440245709935137
396 1 0.0 8.174463884583137 3.1440245709935137
397 1 0.0 7.545658970384434 3.772829485192217
398 1 0.6288049141987028 8.174463884583137 3.772829485192217
399 1 0.6288049141987028 7.545658970384434 4.40163439939092
400 1 0.0 8.174463884583137 4.40163439939092
401 1 0.0 7.545658970384434 5.030439313589622
402 1 0.6288049141987028 8.174463884583137 5.030439313589622
403 1 0.6288049141987028 7.545658970384434 5.659244227788325
404 1 0.0 8.174463884583137 5.659244227788325
405 1 0.0 7.545658970384434 6.2880491419870275
406 1 0.6288049141987028 8.174463884583137 6.2880491419870275
407 1 0.6288049141987028 7.545658970384434 6.916854056185731
408 1 0.0 8.174463884583137 6.916854056185731
409 1 0.0 7.545658970384434 7.545658970384434
410 1 0.6288049141987028 8.174463884583137 7.545658970384434
411 1 0.6288049141987028 7.545658970384434 8.174463884583137
412 1 0.0 8.174463884583137 8.174463884583137
413 1 0.0 7.545658970384434 8.803268798781838
414 1 0.6288049141987028 8.174463884583137 8.803268798781838
415 1 0.6288049141987028 7.545658970384434 9.432073712980541
416 1 0.0 8.174463884583137 9.432073712980541
417 1 0.0 7.545658970384434 10.060878627179244
418 1 0.6288049141987028 8.174463884583137 10.060878627179244
419 1 0.6288049141987028 7.545658970384434 10.689683541377947
420 1 0.0 8.174463884583137 10.689683541377947
421 1 0.0 7.545658970384434 11.31848845557665
422 1 0.6288049141987028 8.174463884583137 11.31848845557665
423 1 0.6288049141987028 7.545658970384434 11.947293369775354
424 1 0.0 8.174463884583137 11.947293369775354
425 1 0.0 7.545658970384434 12.576098283974055
426 1 0.6288049141987028 8.174463884583137 12.576098283974055
427 1 0.6288049141987028 7.545658970384434 13.204903198172758
428 1 0.0 8.174463884583137 13.204903198172758
429 1 0.0 7.545658970384434 13.833708112371461
430 1 0.6288049141987028 8.174463884583137 13.833708112371461
431 1 0.6288049141987028 7.545658970384434 14.462513026570164
432 1 0.0 8.174463884583137 14.462513026570164
433 1 0.0 7.545658970384434 15.091317940768867
434 1 0.6288049141987028 8.174463884583137 15.091317940768867
435 1 0.6288049141987028 7.545658970384434 15.72012285496757
436 1 0.0 8.174463884583137 15.72012285496757
437 1 0.0 7.545658970384434 16.348927769166274
438 1 0.6288049141987028 8.174463884583137 16.348927769166274
439 1 0.6288049141987028 7.545658970384434 16.977732683364977
440 1 0.0 8.174463884583137 16.977732683364977
441 1 0.0 7.545658970384434 17.606537597563676
442 1 0.6288049141987028 8.174463884583137 17.606537597563676
443 1 0.6288049141987028 7.545658970384434 18.23534251176238
444 1 0.0 8.174463884583137 18.23534251176238
445 1 0.0 7.545658970384434 18.864147425961082
446 1 0.6288049141987028 8.174463884583137 18.864147425961082
447 1 0.6288049141987028 7.545658970384434 19.492952340159786
448 1 0.0 8.174463884583137 19.492952340159786
449 1 0.0 8.803268798781838 0.0
450 1 0.6288049141987028 9.432073712980541 0.0
451 1 0.6288049141987028 8.803268798781838 0.6288049141987028
452 1 0.0 9.432073712980541 0.6288049141987028
453 1 0.0 8.803268798781838 1.2576098283974055
454 1 0.6288049141987028 9.432073712980541 1.2576098283974055
455 1 0.6288049141987028 8.803268798781838 1.8864147425961084
456 1 0.0 9.432073712980541 1.8864147425961084
457 1 0.0 8.803268798781838 2.515219656794811
458 1 0.6288049141987028 9.432073712980541 2.515219656794811
459 1 0.6288049141987028 8.803268798781838 3.1440245709935137
460 1 0.0 9.432073712980541 3.1440245709935137
461 1 0.0 8.803268798781838 3.772829485192217
462 1 0.6288049141987028 9.432073712980541 3.772829485192217
463 1 0.6288049141987028 8.803268798781838 4.40163439939092
464 1 0.0 9.432073712980541 4.40163439939092
465 1 0.0 8.803268798781838 5.030439313589622
466 1 0.6288049141987028 9.432073712980541 5.030439313589622
467 1 0.6288049141987028 8.803268798781838 5.659244227788325
468 1 0.0 9.432073712980541 5.659244227788325
469 1 0.0 8.803268798781838 6.2880491419870275
470 1 0.6288049141987028 9.432073712980541 6.2880491419870275
471 1 0.6288049141987028 8.803268798781838 6.916854056185731
472 1 0.0 9.432073712980541 6.916854056185731
473 1 0.0 8.803268798781838 7.545658970384434
474 1 0.6288049141987028 9.432073712980541 7.545658970384434
475 1 0.6288049141987028 8.803268798781838 8.174463884583137
476 1 0.0 9.432073712980541 8.174463884583137
477 1 0.0 8.803268798781838 8.803268798781838
478 1 0.6288049141987028 9.432073712980541 8.803268798781838
479 1 0.6288049141987028 8.803268798781838 9.432073712980541
480 1 0.0 9.432073712980541 9.432073712980541
481 1 0.0 8.803268798781838 10.060878627179244
482 1 0.6288049141987028 9.432073712980541 10.060878627179244
483 1 0.6288049141987028 8.803268798781838 10.689683541377947
484 1 0.0 9.432073712980541 10.689683541377947
485 1 0.0 8.803268798781838 11.31848845557665
486 1 0.6288049141987028 9.432073712980541 11.31848845557665
487 1 0.6288049141987028 8.803268798781838 11.947293369775354
488 1 0.0 9.432073712980541 11.947293369775354
489 1 0.0 8.803268798781838 12.576098283974055
490 1 0.6288049141987028 9.432073712980541 12.576098283974055
491 1 0.6288049141987028 8.803268798781838 13.204903198172758
492 1 0.0 9.432073712980541 13.204903198172758
493 1 0.0 8.803268798781838 13.833708112371461
494 1 0.6288049141987028 9.432073712980541 13.833708112371461
495 1 0.6288049141987028 8.803268798781838 14.462513026570164
496 1 0.0 9.432073712980541 14.462513026570164
497 1 0.0 8.803268798781838 15.091317940768867
498 1 0.6288049141987028 9.432073712980541 15.091317940768867
499 1 0.6288049141987028 8.803268798781838 15.72012285496757
500 1 0.0 9.432073712980541 15.72012285496757
501 1 0.0 8.803268798781838 16.348927769166274
502 1 0.6288049141987028 9.432073712980541 16.348927769166274
503 1 0.6288049141987028 8.803268798781838 16.977732683364977
504 1 0.0 9.432073712980541 16.977732683364977
505 1 0.0 8.803268798781838 17.606537597563676
506 1 0.6288049141987028 9.432073712980541 17.606537597563676
507 1 0.6288049141987028 8.803268798781838 18.23534251176238
508 1 0.0 9.432073712980541 18.23534251176238
509 1 0.0 8.803268798781838 18.864147425961082
510 1 0.6288049141987028 9.432073712980541 18.864147425961082
511 1 0.6288049141987028 8.803268798781838 19.492952340159786
512 1 0.0 9.432073712980541 19.492952340159786
513 1 0.0 10.060878627179244 0.0
514 1 0.6288049141987028 10.689683541377947 0.0
515 1 0.6288049141987028 10.060878627179244 0.6288049141987028
516 1 0.0 10.689683541377947 0.6288049141987028
517 1 0.0 10.060878627179244 1.2576098283974055
518 1 0.6288049141987028 10.689683541377947 1.2576098283974055
519 1 0.6288049141987028 10.060878627179244 1.8864147425961084
520 1 0.0 10.689683541377947 1.8864147425961084
521 1 0.0 10.060878627179244 2.515219656794811
522 1 0.6288049141987028 10.689683541377947 2.515219656794811
523 1 0.6288049141987028 10.060878627179244 3.1440245709935137
524 1 0.0 10.689683541377947 3.1440245709935137
525 1 0.0 10.060878627179244 3.772829485192217
526 1 0.6288049141987028 10.689683541377947 3.772829485192217
527 1 0.6288049141987028 10.060878627179244 4.40163439939092
528 1 0.0 10.689683541377947 4.40163439939092
529 1 0.0 10.060878627179244 5.030439313589622
530 1 0.6288049141987028 10.689683541377947 5.030439313589622
531 1 0.6288049141987028 10.060878627179244 5.659244227788325
532 1 0.0 10.689683541377947 5.659244227788325
533 1 0.0 10.060878627179244 6.2880491419870275
534 1 0.6288049141987028 10.689683541377947 6.2880491419870275
535 1 0.6288049141987028 10.060878627179244 6.916854056185731
536 1 0.0 10.689683541377947 6.916854056185731
537 1 0.0 10.060878627179244 7.545658970384434
538 1 0.6288049141987028 10.689683541377947 7.545658970384434
539 1 0.6288049141987028 10.060878627179244 8.174463884583137
540 1 0.0 10.689683541377947 8.174463884583137
541 1 0.0 10.060878627179244 8.803268798781838
542 1 0.6288049141987028 10.689683541377947 8.803268798781838
543 1 0.6288049141987028 10.060878627179244 9.432073712980541
544 1 0.0 10.689683541377947 9.432073712980541
545 1 0.0 10.060878627179244 10.060878627179244
546 1 0.6288049141987028 10.689683541377947 10.060878627179244
547 1 0.6288049141987028 10.060878627179244 10.689683541377947
548 1 0.0 10.689683541377947 10.689683541377947
549 1 0.0 10.060878627179244 11.31848845557665
550 1 0.6288049141987028 10.689683541377947 11.31848845557665
551 1 0.6288049141987028 10.060878627179244 11.947293369775354
552 1 0.0 10.689683541377947 11.947293369775354
553 1 0.0 10.060878627179244 12.576098283974055
554 1 0.6288049141987028 10.689683541377947 12.576098283974055
555 1 0.6288049141987028 10.060878627179244 13.204903198172758
556 1 0.0 10.689683541377947 13.204903198172758
557 1 0.0 10.060878627179244 13.833708112371461
558 1 0.6288049141987028 10.689683541377947 13.833708112371461
559 1 0.6288049141987028 10.060878627179244 14.462513026570164
560 1 0.0 10.689683541377947 14.462513026570164
561 1 0.0 10.060878627179244 15.091317940768867
562 1 0.6288049141987028 10.689683541377947 15.091317940768867
563 1 0.6288049141987028 10.060878627179244 15.72012285496757
564 1 0.0 10.689683541377947 15.72012285496757