Position Data

864 atoms
1 atom types

0.0 14.035285143421756 xlo xhi
0.0 7.017642571710878 ylo yhi
0.0 7.017642571710878 zlo zhi

Atoms

1 1 0.0 0.0 0.0
2 1 0.5848035476425731 0.5848035476425731 0.0
3 1 0.5848035476425731 0.0 0.5848035476425731
4 1 0.0 0.5848035476425731 0.5848035476425731
5 1 0.0 0.0 1.1696070952851463
6 1 0.5848035476425731 0.5848035476425731 1.1696070952851463
7 1 0.5848035476425731 0.0 1.7544106429277195
8 1 0.0 0.5848035476425731 1.7544106429277195
9 1 0.0 0.0 2.3392141905702926
10 1 0.5848035476425731 0.5848035476425731 2.3392141905702926
11 1 0.5848035476425731 0.0 2.9240177382128656
12 1 0.0 0.5848035476425731 2.9240177382128656
13 1 0.0 0.0 3.508821285855439
14 1 0.5848035476425731 0.5848035476425731 3.508821285855439
15 1 0.5848035476425731 0.0 4.093624833498012
16 1 0.0 0.5848035476425731 4.093624833498012
17 1 0.0 0.0 4.678428381140585
18 1 0.5848035476425731 0.5848035476425731 4.678428381140585
19 1 0.5848035476425731 0.0 5.263231928783158
20 1 0.0 0.5848035476425731 5.263231928783158
21 1 0.0 0.0 5.848035476425731
22 1 0.5848035476425731 0.5848035476425731 5.848035476425731
23 1 0.5848035476425731 0.0 6.432839024068304
24 1 0.0 0.5848035476425731 6.432839024068304
25 1 0.0 1.1696070952851463 0.0
26 1 0.5848035476425731 1.7544106429277195 0.0
27 1 0.5848035476425731 1.1696070952851463 0.5848035476425731
28 1 0.0 1.7544106429277195 0.5848035476425731
29 1 0.0 1.1696070952851463 1.1696070952851463
30 1 0.5848035476425731 1.7544106429277195 1.1696070952851463
31 1 0.5848035476425731 1.1696070952851463 1.7544106429277195
32 1 0.0 1.7544106429277195 1.7544106429277195
33 1 0.0 1.1696070952851463 2.3392141905702926
34 1 0.5848035476425731 1.7544106429277195 2.3392141905702926
35 1 0.5848035476425731 1.1696070952851463 2.9240177382128656
36 1 0.0 1.7544106429277195 2.9240177382128656
37 1 0.0 1.1696070952851463 3.508821285855439
38 1 0.5848035476425731 1.7544106429277195 3.508821285855439
39 1 0.5848035476425731 1.1696070952851463 4.093624833498012
40 1 0.0 1.7544106429277195 4.093624833498012
41 1 0.0 1.1696070952851463 4.678428381140585
42 1 0.5848035476425731 1.7544106429277195 4.678428381140585
43 1 0.5848035476425731 1.1696070952851463 5.263231928783158
44 1 0.0 1.7544106429277195 5.263231928783158
45 1 0.0 1.1696070952851463 5.848035476425731
46 1 0.5848035476425731 1.7544106429277195 5.848035476425731
47 1 0.5848035476425731 1.1696070952851463 6.432839024068304
48 1 0.0 1.7544106429277195 6.432839024068304
49 1 0.0 2.3392141905702926 0.0
50 1 0.5848035476425731 2.9240177382128656 0.0
51 1 0.5848035476425731 2.3392141905702926 0.5848035476425731
52 1 0.0 2.9240177382128656 0.5848035476425731
53 1 0.0 2.3392141905702926 1.1696070952851463
54 1 0.5848035476425731 2.9240177382128656 1.1696070952851463
55 1 0.5848035476425731 2.3392141905702926 1.7544106429277195
56 1 0.0 2.9240177382128656 1.7544106429277195
57 1 0.0 2.3392141905702926 2.3392141905702926
58 1 0.5848035476425731 2.9240177382128656 2.3392141905702926
59 1 0.5848035476425731 2.3392141905702926 2.9240177382128656
60 1 0.0 2.9240177382128656 2.9240177382128656
61 1 0.0 2.3392141905702926 3.508821285855439
62 1 0.5848035476425731 2.9240177382128656 3.508821285855439
63 1 0.5848035476425731 2.3392141905702926 4.093624833498012
64 1 0.0 2.9240177382128656 4.093624833498012
65 1 0.0 2.3392141905702926 4.678428381140585
66 1 0.5848035476425731 2.9240177382128656 4.678428381140585
67 1 0.5848035476425731 2.3392141905702926 5.263231928783158
68 1 0.0 2.9240177382128656 5.263231928783158
69 1 0.0 2.3392141905702926 5.848035476425731
70 1 0.5848035476425731 2.9240177382128656 5.848035476425731
71 1 0.5848035476425731 2.3392141905702926 6.432839024068304
72 1 0.0 2.9240177382128656 6.432839024068304
73 1 0.0 3.508821285855439 0.0
74 1 0.5848035476425731 4.093624833498012 0.0
75 1 0.5848035476425731 3.508821285855439 0.5848035476425731
76 1 0.0 4.093624833498012 0.5848035476425731
77 1 0.0 3.508821285855439 1.1696070952851463
78 1 0.5848035476425731 4.093624833498012 1.1696070952851463
79 1 0.5848035476425731 3.508821285855439 1.7544106429277195
80 1 0.0 4.093624833498012 1.7544106429277195
81 1 0.0 3.508821285855439 2.3392141905702926
82 1 0.5848035476425731 4.093624833498012 2.3392141905702926
83 1 0.5848035476425731 3.508821285855439 2.9240177382128656
84 1 0.0 4.093624833498012 2.9240177382128656
85 1 0.0 3.508821285855439 3.508821285855439
86 1 0.5848035476425731 4.093624833498012 3.508821285855439
87 1 0.5848035476425731 3.508821285855439 4.093624833498012
88 1 0.0 4.093624833498012 4.093624833498012
89 1 0.0 3.508821285855439 4.678428381140585
90 1 0.5848035476425731 4.093624833498012 4.678428381140585
91 1 0.5848035476425731 3.508821285855439 5.263231928783158
92 1 0.0 4.093624833498012 5.263231928783158
93 1 0.0 3.508821285855439 5.848035476425731
94 1 0.5848035476425731 4.093624833498012 5.848035476425731
95 1 0.5848035476425731 3.508821285855439 6.432839024068304
96 1 0.0 4.093624833498012 6.432839024068304
97 1 0.0 4.678428381140585 0.0
98 1 0.5848035476425731 5.263231928783158 0.0
99 1 0.5848035476425731 4.678428381140585 0.5848035476425731
100 1 0.0 5.263231928783158 0.5848035476425731
101 1 0.0 4.678428381140585 1.1696070952851463
102 1 0.5848035476425731 5.263231928783158 1.1696070952851463
103 1 0.5848035476425731 4.678428381140585 1.7544106429277195
104 1 0.0 5.263231928783158 1.7544106429277195
105 1 0.0 4.678428381140585 2.3392141905702926
106 1 0.5848035476425731 5.263231928783158 2.3392141905702926
107 1 0.5848035476425731 4.678428381140585 2.9240177382128656
108 1 0.0 5.263231928783158 2.9240177382128656
109 1 0.0 4.678428381140585 3.508821285855439
110 1 0.5848035476425731 5.263231928783158 3.508821285855439
111 1 0.5848035476425731 4.678428381140585 4.093624833498012
112 1 0.0 5.263231928783158 4.093624833498012
113 1 0.0 4.678428381140585 4.678428381140585
114 1 0.5848035476425731 5.263231928783158 4.678428381140585
115 1 0.5848035476425731 4.678428381140585 5.263231928783158
116 1 0.0 5.263231928783158 5.263231928783158
117 1 0.0 4.678428381140585 5.848035476425731
118 1 0.5848035476425731 5.263231928783158 5.848035476425731
119 1 0.5848035476425731 4.678428381140585 6.432839024068304
120 1 0.0 5.263231928783158 6.432839024068304
121 1 0.0 5.848035476425731 0.0
122 1 0.5848035476425731 6.432839024068304 0.0
123 1 0.5848035476425731 5.848035476425731 0.5848035476425731
124 1 0.0 6.432839024068304 0.5848035476425731
125 1 0.0 5.848035476425731 1.1696070952851463
126 1 0.5848035476425731 6.432839024068304 1.1696070952851463
127 1 0.5848035476425731 5.848035476425731 1.7544106429277195
128 1 0.0 6.432839024068304 1.7544106429277195
129 1 0.0 5.848035476425731 2.3392141905702926
130 1 0.5848035476425731 6.432839024068304 2.3392141905702926
131 1 0.5848035476425731 5.848035476425731 2.9240177382128656
132 1 0.0 6.432839024068304 2.9240177382128656
133 1 0.0 5.848035476425731 3.508821285855439
134 1 0.5848035476425731 6.432839024068304 3.508821285855439
135 1 0.5848035476425731 5.848035476425731 4.093624833498012
136 1 0.0 6.432839024068304 4.093624833498012
137 1 0.0 5.848035476425731 4.678428381140585
138 1 0.5848035476425731 6.432839024068304 4.678428381140585
139 1 0.5848035476425731 5.848035476425731 5.263231928783158
140 1 0.0 6.432839024068304 5.263231928783158
141 1 0.0 5.848035476425731 5.848035476425731
142 1 0.5848035476425731 6.432839024068304 5.848035476425731
143 1 0.5848035476425731 5.848035476425731 6.432839024068304
144 1 0.0 6.432839024068304 6.432839024068304
145 1 1.1696070952851463 0.0 0.0
146 1 1.7544106429277195 0.5848035476425731 0.0
147 1 1.7544106429277195 0.0 0.5848035476425731
148 1 1.1696070952851463 0.5848035476425731 0.5848035476425731
149 1 1.1696070952851463 0.0 1.1696070952851463
150 1 1.7544106429277195 0.5848035476425731 1.1696070952851463
151 1 1.7544106429277195 0.0 1.7544106429277195
152 1 1.1696070952851463 0.5848035476425731 1.7544106429277195
153 1 1.1696070952851463 0.0 2.3392141905702926
154 1 1.7544106429277195 0.5848035476425731 2.3392141905702926
155 1 1.7544106429277195 0.0 2.9240177382128656
156 1 1.1696070952851463 0.5848035476425731 2.9240177382128656
157 1 1.1696070952851463 0.0 3.508821285855439
158 1 1.7544106429277195 0.5848035476425731 3.508821285855439
159 1 1.7544106429277195 0.0 4.093624833498012
160 1 1.1696070952851463 0.5848035476425731 4.093624833498012
161 1 1.1696070952851463 0.0 4.678428381140585
162 1 1.7544106429277195 0.5848035476425731 4.678428381140585
163 1 1.7544106429277195 0.0 5.263231928783158
164 1 1.1696070952851463 0.5848035476425731 5.263231928783158
165 1 1.1696070952851463 0.0 5.848035476425731
166 1 1.7544106429277195 0.5848035476425731 5.848035476425731
167 1 1.7544106429277195 0.0 6.432839024068304
168 1 1.1696070952851463 0.5848035476425731 6.432839024068304
169 1 1.1696070952851463 1.1696070952851463 0.0
170 1 1.7544106429277195 1.7544106429277195 0.0
171 1 1.7544106429277195 1.1696070952851463 0.5848035476425731
172 1 1.1696070952851463 1.7544106429277195 0.5848035476425731
173 1 1.1696070952851463 1.1696070952851463 1.1696070952851463
174 1 1.7544106429277195 1.7544106429277195 1.1696070952851463
175 1 1.7544106429277195 1.1696070952851463 1.7544106429277195
176 1 1.1696070952851463 1.7544106429277195 1.7544106429277195
177 1 1.1696070952851463 1.1696070952851463 2.3392141905702926
178 1 1.7544106429277195 1.7544106429277195 2.3392141905702926
179 1 1.7544106429277195 1.1696070952851463 2.9240177382128656
180 1 1.1696070952851463 1.7544106429277195 2.9240177382128656
181 1 1.1696070952851463 1.1696070952851463 3.508821285855439
182 1 1.7544106429277195 1.7544106429277195 3.508821285855439
183 1 1.7544106429277195 1.1696070952851463 4.093624833498012
184 1 1.1696070952851463 1.7544106429277195 4.093624833498012
185 1 1.1696070952851463 1.1696070952851463 4.678428381140585
186 1 1.7544106429277195 1.7544106429277195 4.678428381140585
187 1 1.7544106429277195 1.1696070952851463 5.263231928783158
188 1 1.1696070952851463 1.7544106429277195 5.263231928783158
189 1 1.1696070952851463 1.1696070952851463 5.848035476425731
190 1 1.7544106429277195 1.7544106429277195 5.848035476425731
191 1 1.7544106429277195 1.1696070952851463 6.432839024068304
192 1 1.1696070952851463 1.7544106429277195 6.432839024068304
193 1 1.1696070952851463 2.3392141905702926 0.0
194 1 1.7544106429277195 2.9240177382128656 0.0
195 1 1.7544106429277195 2.3392141905702926 0.5848035476425731
196 1 1.1696070952851463 2.9240177382128656 0.5848035476425731
197 1 1.1696070952851463 2.3392141905702926 1.1696070952851463
198 1 1.7544106429277195 2.9240177382128656 1.1696070952851463
199 1 1.7544106429277195 2.3392141905702926 1.7544106429277195
200 1 1.1696070952851463 2.9240177382128656 1.7544106429277195
201 1 1.1696070952851463 2.3392141905702926 2.3392141905702926
202 1 1.7544106429277195 2.9240177382128656 2.3392141905702926
203 1 1.7544106429277195 2.3392141905702926 2.9240177382128656
204 1 1.1696070952851463 2.9240177382128656 2.9240177382128656
205 1 1.1696070952851463 2.3392141905702926 3.508821285855439
206 1 1.7544106429277195 2.9240177382128656 3.508821285855439
207 1 1.7544106429277195 2.3392141905702926 4.093624833498012
208 1 1.1696070952851463 2.9240177382128656 4.093624833498012
209 1 1.1696070952851463 2.3392141905702926 4.678428381140585
210 1 1.7544106429277195 2.9240177382128656 4.678428381140585
211 1 1.7544106429277195 2.3392141905702926 5.263231928783158
212 1 1.1696070952851463 2.9240177382128656 5.263231928783158
213 1 1.1696070952851463 2.3392141905702926 5.848035476425731
214 1 1.7544106429277195 2.9240177382128656 5.848035476425731
215 1 1.7544106429277195 2.3392141905702926 6.432839024068304
216 1 1.1696070952851463 2.9240177382128656 6.432839024068304
217 1 1.1696070952851463 3.508821285855439 0.0
218 1 1.7544106429277195 4.093624833498012 0.0
219 1 1.7544106429277195 3.508821285855439 0.5848035476425731
220 1 1.1696070952851463 4.093624833498012 0.5848035476425731
221 1 1.1696070952851463 3.508821285855439 1.1696070952851463
222 1 1.7544106429277195 4.093624833498012 1.1696070952851463
223 1 1.7544106429277195 3.508821285855439 1.7544106429277195
224 1 1.1696070952851463 4.093624833498012 1.7544106429277195
225 1 1.1696070952851463 3.508821285855439 2.3392141905702926
226 1 1.7544106429277195 4.093624833498012 2.3392141905702926
227 1 1.7544106429277195 3.508821285855439 2.9240177382128656
228 1 1.1696070952851463 4.093624833498012 2.9240177382128656
229 1 1.1696070952851463 3.508821285855439 3.508821285855439
230 1 1.7544106429277195 4.093624833498012 3.508821285855439
231 1 1.7544106429277195 3.508821285855439 4.093624833498012
232 1 1.1696070952851463 4.093624833498012 4.093624833498012
233 1 1.1696070952851463 3.508821285855439 4.678428381140585
234 1 1.7544106429277195 4.093624833498012 4.678428381140585
235 1 1.7544106429277195 3.508821285855439 5.263231928783158
236 1 1.1696070952851463 4.093624833498012 5.263231928783158
237 1 1.1696070952851463 3.508821285855439 5.848035476425731
238 1 1.7544106429277195 4.093624833498012 5.848035476425731
239 1 1.7544106429277195 3.508821285855439 6.432839024068304
240 1 1.1696070952851463 4.093624833498012 6.432839024068304
241 1 1.1696070952851463 4.678428381140585 0.0
242 1 1.7544106429277195 5.263231928783158 0.0
243 1 1.7544106429277195 4.678428381140585 0.5848035476425731
244 1 1.1696070952851463 5.263231928783158 0.5848035476425731
245 1 1.1696070952851463 4.678428381140585 1.1696070952851463
246 1 1.7544106429277195 5.263231928783158 1.1696070952851463
247 1 1.7544106429277195 4.678428381140585 1.7544106429277195
248 1 1.1696070952851463 5.263231928783158 1.7544106429277195
249 1 1.1696070952851463 4.678428381140585 2.3392141905702926
250 1 1.7544106429277195 5.263231928783158 2.3392141905702926
251 1 1.7544106429277195 4.678428381140585 2.9240177382128656
252 1 1.1696070952851463 5.263231928783158 2.9240177382128656
253 1 1.1696070952851463 4.678428381140585 3.508821285855439
254 1 1.7544106429277195 5.263231928783158 3.508821285855439
255 1 1.7544106429277195 4.678428381140585 4.093624833498012
256 1 1.1696070952851463 5.263231928783158 4.093624833498012
257 1 1.1696070952851463 4.678428381140585 4.678428381140585
258 1 1.7544106429277195 5.263231928783158 4.678428381140585
259 1 1.7544106429277195 4.678428381140585 5.263231928783158
260 1 1.1696070952851463 5.263231928783158 5.263231928783158
261 1 1.1696070952851463 4.678428381140585 5.848035476425731
262 1 1.7544106429277195 5.263231928783158 5.848035476425731
263 1 1.7544106429277195 4.678428381140585 6.432839024068304
264 1 1.1696070952851463 5.263231928783158 6.432839024068304
265 1 1.1696070952851463 5.848035476425731 0.0
266 1 1.7544106429277195 6.432839024068304 0.0
267 1 1.7544106429277195 5.848035476425731 0.5848035476425731
268 1 1.1696070952851463 6.432839024068304 0.5848035476425731
269 1 1.1696070952851463 5.848035476425731 1.1696070952851463
270 1 1.7544106429277195 6.432839024068304 1.1696070952851463
271 1 1.7544106429277195 5.848035476425731 1.7544106429277195
272 1 1.1696070952851463 6.432839024068304 1.7544106429277195
273 1 1.1696070952851463 5.848035476425731 2.3392141905702926
274 1 1.7544106429277195 6.432839024068304 2.3392141905702926
275 1 1.7544106429277195 5.848035476425731 2.9240177382128656
276 1 1.1696070952851463 6.432839024068304 2.9240177382128656
277 1 1.1696070952851463 5.848035476425731 3.508821285855439
278 1 1.7544106429277195 6.432839024068304 3.508821285855439
279 1 1.7544106429277195 5.848035476425731 4.093624833498012
280 1 1.1696070952851463 6.432839024068304 4.093624833498012
281 1 1.1696070952851463 5.848035476425731 4.678428381140585
282 1 1.7544106429277195 6.432839024068304 4.678428381140585
283 1 1.7544106429277195 5.848035476425731 5.263231928783158
284 1 1.1696070952851463 6.432839024068304 5.263231928783158
285 1 1.1696070952851463 5.848035476425731 5.848035476425731
286 1 1.7544106429277195 6.432839024068304 5.848035476425731
287 1 1.7544106429277195 5.848035476425731 6.432839024068304
288 1 1.1696070952851463 6.432839024068304 6.432839024068304
289 1 2.3392141905702926 0.0 0.0
290 1 2.9240177382128656 0.5848035476425731 0.0
291 1 2.9240177382128656 0.0 0.5848035476425731
292 1 2.3392141905702926 0.5848035476425731 0.5848035476425731
293 1 2.3392141905702926 0.0 1.1696070952851463
294 1 2.9240177382128656 0.5848035476425731 1.1696070952851463
295 1 2.9240177382128656 0.0 1.7544106429277195
296 1 2.3392141905702926 0.5848035476425731 1.7544106429277195
297 1 2.3392141905702926 0.0 2.3392141905702926
298 1 2.9240177382128656 0.5848035476425731 2.3392141905702926
299 1 2.9240177382128656 0.0 2.9240177382128656
300 1 2.3392141905702926 0.5848035476425731 2.9240177382128656
301 1 2.3392141905702926 0.0 3.508821285855439
302 1 2.9240177382128656 0.5848035476425731 3.508821285855439
303 1 2.9240177382128656 0.0 4.093624833498012
304 1 2.3392141905702926 0.5848035476425731 4.093624833498012
305 1 2.3392141905702926 0.0 4.678428381140585
306 1 2.9240177382128656 0.5848035476425731 4.678428381140585
307 1 2.9240177382128656 0.0 5.263231928783158
308 1 2.3392141905702926 0.5848035476425731 5.263231928783158
309 1 2.3392141905702926 0.0 5.848035476425731
310 1 2.9240177382128656 0.5848035476425731 5.848035476425731
311 1 2.9240177382128656 0.0 6.432839024068304
312 1 2.3392141905702926 0.5848035476425731 6.432839024068304
313 1 2.3392141905702926 1.1696070952851463 0.0
314 1 2.9240177382128656 1.7544106429277195 0.0
315 1 2.9240177382128656 1.1696070952851463 0.5848035476425731
316 1 2.3392141905702926 1.7544106429277195 0.5848035476425731
317 1 2.3392141905702926 1.1696070952851463 1.1696070952851463
318 1 2.9240177382128656 1.7544106429277195 1.1696070952851463
319 1 2.9240177382128656 1.1696070952851463 1.7544106429277195
320 1 2.3392141905702926 1.7544106429277195 1.7544106429277195
321 1 2.3392141905702926 1.1696070952851463 2.3392141905702926
322 1 2.9240177382128656 1.7544106429277195 2.3392141905702926
323 1 2.9240177382128656 1.1696070952851463 2.9240177382128656
324 1 2.3392141905702926 1.7544106429277195 2.9240177382128656
325 1 2.3392141905702926 1.1696070952851463 3.508821285855439
326 1 2.9240177382128656 1.7544106429277195 3.508821285855439
327 1 2.9240177382128656 1.1696070952851463 4.093624833498012
328 1 2.3392141905702926 1.7544106429277195 4.093624833498012
329 1 2.3392141905702926 1.1696070952851463 4.678428381140585
330 1 2.9240177382128656 1.7544106429277195 4.678428381140585
331 1 2.9240177382128656 1.1696070952851463 5.263231928783158
332 1 2.3392141905702926 1.7544106429277195 5.263231928783158
333 1 2.3392141905702926 1.1696070952851463 5.848035476425731
334 1 2.9240177382128656 1.7544106429277195 5.848035476425731
335 1 2.9240177382128656 1.1696070952851463 6.432839024068304
336 1 2.3392141905702926 1.7544106429277195 6.432839024068304
337 1 2.3392141905702926 2.3392141905702926 0.0
338 1 2.9240177382128656 2.9240177382128656 0.0
339 1 2.9240177382128656 2.3392141905702926 0.5848035476425731
340 1 2.3392141905702926 2.9240177382128656 0.5848035476425731
341 1 2.3392141905702926 2.3392141905702926 1.1696070952851463
342 1 2.9240177382128656 2.9240177382128656 1.1696070952851463
343 1 2.9240177382128656 2.3392141905702926 1.7544106429277195
344 1 2.3392141905702926 2.9240177382128656 1.7544106429277195
345 1 2.3392141905702926 2.3392141905702926 2.3392141905702926
346 1 2.9240177382128656 2.9240177382128656 2.3392141905702926
347 1 2.9240177382128656 2.3392141905702926 2.9240177382128656
348 1 2.3392141905702926 2.9240177382128656 2.9240177382128656
349 1 2.3392141905702926 2.3392141905702926 3.508821285855439
350 1 2.9240177382128656 2.9240177382128656 3.508821285855439
351 1 2.9240177382128656 2.3392141905702926 4.093624833498012
352 1 2.3392141905702926 2.9240177382128656 4.093624833498012
353 1 2.3392141905702926 2.3392141905702926 4.678428381140585
354 1 2.9240177382128656 2.9240177382128656 4.678428381140585
355 1 2.9240177382128656 2.3392141905702926 5.263231928783158
356 1 2.3392141905702926 2.9240177382128656 5.263231928783158
357 1 2.3392141905702926 2.3392141905702926 5.848035476425731
358 1 2.9240177382128656 2.9240177382128656 5.848035476425731
359 1 2.9240177382128656 2.3392141905702926 6.432839024068304
360 1 2.3392141905702926 2.9240177382128656 6.432839024068304
361 1 2.3392141905702926 3.508821285855439 0.0
362 1 2.9240177382128656 4.093624833498012 0.0
363 1 2.9240177382128656 3.508821285855439 0.5848035476425731
364 1 2.3392141905702926 4.093624833498012 0.5848035476425731
365 1 2.3392141905702926 3.508821285855439 1.1696070952851463
366 1 2.9240177382128656 4.093624833498012 1.1696070952851463
367 1 2.9240177382128656 3.508821285855439 1.7544106429277195
368 1 2.3392141905702926 4.093624833498012 1.7544106429277195
369 1 2.3392141905702926 3.508821285855439 2.3392141905702926
370 1 2.9240177382128656 4.093624833498012 2.3392141905702926
371 1 2.9240177382128656 3.508821285855439 2.9240177382128656
372 1 2.3392141905702926 4.093624833498012 2.9240177382128656
373 1 2.3392141905702926 3.508821285855439 3.508821285855439
374 1 2.9240177382128656 4.093624833498012 3.508821285855439
375 1 2.9240177382128656 3.508821285855439 4.093624833498012
376 1 2.3392141905702926 4.093624833498012 4.093624833498012
377 1 2.3392141905702926 3.508821285855439 4.678428381140585
378 1 2.9240177382128656 4.093624833498012 4.678428381140585
379 1 2.9240177382128656 3.508821285855439 5.263231928783158
380 1 2.3392141905702926 4.093624833498012 5.263231928783158
381 1 2.3392141905702926 3.508821285855439 5.848035476425731
382 1 2.9240177382128656 4.093624833498012 5.848035476425731
383 1 2.9240177382128656 3.508821285855439 6.432839024068304
384 1 2.3392141905702926 4.093624833498012 6.432839024068304
385 1 2.3392141905702926 4.678428381140585 0.0
386 1 2.9240177382128656 5.263231928783158 0.0
387 1 2.9240177382128656 4.678428381140585 0.5848035476425731
388 1 2.3392141905702926 5.263231928783158 0.5848035476425731
389 1 2.3392141905702926 4.678428381140585 1.1696070952851463
390 1 2.9240177382128656 5.263231928783158 1.1696070952851463
391 1 2.9240177382128656 4.678428381140585 1.7544106429277195
392 1 2.3392141905702926 5.263231928783158 1.7544106429277195
393 1 2.3392141905702926 4.678428381140585 2.3392141905702926
394 1 2.9240177382128656 5.263231928783158 2.3392141905702926
395 1 2.9240177382128656 4.678428381140585 2.9240177382128656
396 1 2.3392141905702926 5.263231928783158 2.9240177382128656
397 1 2.3392141905702926 4.678428381140585 3.508821285855439
398 1 2.9240177382128656 5.263231928783158 3.508821285855439
399 1 2.9240177382128656 4.678428381140585 4.093624833498012
400 1 2.3392141905702926 5.263231928783158 4.093624833498012
401 1 2.3392141905702926 4.678428381140585 4.678428381140585
402 1 2.9240177382128656 5.263231928783158 4.678428381140585
403 1 2.9240177382128656 4.678428381140585 5.263231928783158
404 1 2.3392141905702926 5.263231928783158 5.263231928783158
405 1 2.3392141905702926 4.678428381140585 5.848035476425731
406 1 2.9240177382128656 5.263231928783158 5.848035476425731
407 1 2.9240177382128656 4.678428381140585 6.432839024068304
408 1 2.3392141905702926 5.263231928783158 6.432839024068304
409 1 2.3392141905702926 5.848035476425731 0.0
410 1 2.9240177382128656 6.432839024068304 0.0
411 1 2.9240177382128656 5.848035476425731 0.5848035476425731
412 1 2.3392141905702926 6.432839024068304 0.5848035476425731
413 1 2.3392141905702926 5.848035476425731 1.1696070952851463
414 1 2.9240177382128656 6.432839024068304 1.1696070952851463
415 1 2.9240177382128656 5.848035476425731 1.7544106429277195
416 1 2.3392141905702926 6.432839024068304 1.7544106429277195
417 1 2.3392141905702926 5.848035476425731 2.3392141905702926
418 1 2.9240177382128656 6.432839024068304 2.3392141905702926
419 1 2.9240177382128656 5.848035476425731 2.9240177382128656
420 1 2.3392141905702926 6.432839024068304 2.9240177382128656
421 1 2.3392141905702926 5.848035476425731 3.508821285855439
422 1 2.9240177382128656 6.432839024068304 3.508821285855439
423 1 2.9240177382128656 5.848035476425731 4.093624833498012
424 1 2.3392141905702926 6.432839024068304 4.093624833498012
425 1 2.3392141905702926 5.848035476425731 4.678428381140585
426 1 2.9240177382128656 6.432839024068304 4.678428381140585
427 1 2.9240177382128656 5.848035476425731 5.263231928783158
428 1 2.3392141905702926 6.432839024068304 5.263231928783158
429 1 2.3392141905702926 5.848035476425731 5.848035476425731
430 1 2.9240177382128656 6.432839024068304 5.848035476425731
431 1 2.9240177382128656 5.848035476425731 6.432839024068304
432 1 2.3392141905702926 6.432839024068304 6.432839024068304
433 1 3.508821285855439 0.0 0.0
434 1 4.093624833498012 0.5848035476425731 0.0
435 1 4.093624833498012 0.0 0.5848035476425731
436 1 3.508821285855439 0.5848035476425731 0.5848035476425731
437 1 3.508821285855439 0.0 1.1696070952851463
438 1 4.093624833498012 0.5848035476425731 1.1696070952851463
439 1 4.093624833498012 0.0 1.7544106429277195
440 1 3.508821285855439 0.5848035476425731 1.7544106429277195
441 1 3.508821285855439 0.0 2.3392141905702926
442 1 4.093624833498012 0.5848035476425731 2.3392141905702926
443 1 4.093624833498012 0.0 2.9240177382128656
444 1 3.508821285855439 0.5848035476425731 2.9240177382128656
445 1 3.508821285855439 0.0 3.508821285855439
446 1 4.093624833498012 0.5848035476425731 3.508821285855439
447 1 4.093624833498012 0.0 4.093624833498012
448 1 3.508821285855439 0.5848035476425731 4.093624833498012
449 1 3.508821285855439 0.0 4.678428381140585
450 1 4.093624833498012 0.5848035476425731 4.678428381140585
451 1 4.093624833498012 0.0 5.263231928783158
452 1 3.508821285855439 0.5848035476425731 5.263231928783158
453 1 3.508821285855439 0.0 5.848035476425731
454 1 4.093624833498012 0.5848035476425731 5.848035476425731
455 1 4.093624833498012 0.0 6.432839024068304
456 1 3.508821285855439 0.5848035476425731 6.432839024068304
457 1 3.508821285855439 1.1696070952851463 0.0
458 1 4.093624833498012 1.7544106429277195 0.0
459 1 4.093624833498012 1.1696070952851463 0.5848035476425731
460 1 3.508821285855439 1.7544106429277195 0.5848035476425731
461 1 3.508821285855439 1.1696070952851463 1.1696070952851463
462 1 4.093624833498012 1.7544106429277195 1.1696070952851463
463 1 4.093624833498012 1.1696070952851463 1.7544106429277195
464 1 3.508821285855439 1.7544106429277195 1.7544106429277195
465 1 3.508821285855439 1.1696070952851463 2.3392141905702926
466 1 4.093624833498012 1.7544106429277195 2.3392141905702926
467 1 4.093624833498012 1.1696070952851463 2.9240177382128656
468 1 3.508821285855439 1.7544106429277195 2.9240177382128656
469 1 3.508821285855439 1.1696070952851463 3.508821285855439
470 1 4.093624833498012 1.7544106429277195 3.508821285855439
471 1 4.093624833498012 1.1696070952851463 4.093624833498012
472 1 3.508821285855439 1.7544106429277195 4.093624833498012
473 1 3.508821285855439 1.1696070952851463 4.678428381140585
474 1 4.093624833498012 1.7544106429277195 4.678428381140585
475 1 4.093624833498012 1.1696070952851463 5.263231928783158
476 1 3.508821285855439 1.7544106429277195 5.263231928783158
477 1 3.508821285855439 1.1696070952851463 5.848035476425731
478 1 4.093624833498012 1.7544106429277195 5.848035476425731
479 1 4.093624833498012 1.1696070952851463 6.432839024068304
480 1 3.508821285855439 1.7544106429277195 6.432839024068304
481 1 3.508821285855439 2.3392141905702926 0.0
482 1 4.093624833498012 2.9240177382128656 0.0
483 1 4.093624833498012 2.3392141905702926 0.5848035476425731
484 1 3.508821285855439 2.9240177382128656 0.5848035476425731
485 1 3.508821285855439 2.3392141905702926 1.1696070952851463
486 1 4.093624833498012 2.9240177382128656 1.1696070952851463
487 1 4.093624833498012 2.3392141905702926 1.7544106429277195
488 1 3.508821285855439 2.9240177382128656 1.7544106429277195
489 1 3.508821285855439 2.3392141905702926 2.3392141905702926
490 1 4.093624833498012 2.9240177382128656 2.3392141905702926
491 1 4.093624833498012 2.3392141905702926 2.9240177382128656
492 1 3.508821285855439 2.9240177382128656 2.9240177382128656
493 1 3.508821285855439 2.3392141905702926 3.508821285855439
494 1 4.093624833498012 2.9240177382128656 3.508821285855439
495 1 4.093624833498012 2.3392141905702926 4.093624833498012
496 1 3.508821285855439 2.9240177382128656 4.093624833498012
497 1 3.508821285855439 2.3392141905702926 4.678428381140585
498 1 4.093624833498012 2.9240177382128656 4.678428381140585
499 1 4.093624833498012 2.3392141905702926 5.263231928783158
500 1 3.508821285855439 2.9240177382128656 5.263231928783158
501 1 3.508821285855439 2.3392141905702926 5.848035476425731
502 1 4.093624833498012 2.9240177382128656 5.848035476425731
503 1 4.093624833498012 2.3392141905702926 6.432839024068304
504 1 3.508821285855439 2.9240177382128656 6.432839024068304
505 1 3.508821285855439 3.508821285855439 0.0
506 1 4.093624833498012 4.093624833498012 0.0
507 1 4.093624833498012 3.508821285855439 0.5848035476425731
508 1 3.508821285855439 4.093624833498012 0.5848035476425731
509 1 3.508821285855439 3.508821285855439 1.1696070952851463
510 1 4.093624833498012 4.093624833498012 1.1696070952851463
511 1 4.093624833498012 3.508821285855439 1.7544106429277195
512 1 3.508821285855439 4.093624833498012 1.7544106429277195
513 1 3.508821285855439 3.508821285855439 2.3392141905702926
514 1 4.093624833498012 4.093624833498012 2.3392141905702926
515 1 4.093624833498012 3.508821285855439 2.9240177382128656
516 1 3.508821285855439 4.093624833498012 2.9240177382128656
517 1 3.508821285855439 3.508821285855439 3.508821285855439
518 1 4.093624833498012 4.093624833498012 3.508821285855439
519 1 4.093624833498012 3.508821285855439 4.093624833498012
520 1 3.508821285855439 4.093624833498012 4.093624833498012
521 1 3.508821285855439 3.508821285855439 4.678428381140585
522 1 4.093624833498012 4.093624833498012 4.678428381140585
523 1 4.093624833498012 3.508821285855439 5.263231928783158
524 1 3.508821285855439 4.093624833498012 5.263231928783158