Position Data

13500 atoms
1 atom types

0.0 54.15496517934336 xlo xhi
0.0 27.07748258967168 ylo yhi
0.0 27.07748258967168 zlo zhi

Atoms

1 1 0.0 0.0 0.0
2 1 0.902582752989056 0.902582752989056 0.0
3 1 0.902582752989056 0.0 0.902582752989056
4 1 0.0 0.902582752989056 0.902582752989056
5 1 0.0 0.0 1.805165505978112
6 1 0.902582752989056 0.902582752989056 1.805165505978112
7 1 0.902582752989056 0.0 2.707748258967168
8 1 0.0 0.902582752989056 2.707748258967168
9 1 0.0 0.0 3.610331011956224
10 1 0.902582752989056 0.902582752989056 3.610331011956224
11 1 0.902582752989056 0.0 4.51291376494528
12 1 0.0 0.902582752989056 4.51291376494528
13 1 0.0 0.0 5.415496517934336
14 1 0.902582752989056 0.902582752989056 5.415496517934336
15 1 0.902582752989056 0.0 6.318079270923392
16 1 0.0 0.902582752989056 6.318079270923392
17 1 0.0 0.0 7.220662023912448
18 1 0.902582752989056 0.902582752989056 7.220662023912448
19 1 0.902582752989056 0.0 8.123244776901505
20 1 0.0 0.902582752989056 8.123244776901505
21 1 0.0 0.0 9.02582752989056
22 1 0.902582752989056 0.902582752989056 9.02582752989056
23 1 0.902582752989056 0.0 9.928410282879616
24 1 0.0 0.902582752989056 9.928410282879616
25 1 0.0 0.0 10.830993035868673
26 1 0.902582752989056 0.902582752989056 10.830993035868673
27 1 0.902582752989056 0.0 11.73357578885773
28 1 0.0 0.902582752989056 11.73357578885773
29 1 0.0 0.0 12.636158541846784
30 1 0.902582752989056 0.902582752989056 12.636158541846784
31 1 0.902582752989056 0.0 13.538741294835841
32 1 0.0 0.902582752989056 13.538741294835841
33 1 0.0 0.0 14.441324047824896
34 1 0.902582752989056 0.902582752989056 14.441324047824896
35 1 0.902582752989056 0.0 15.343906800813953
36 1 0.0 0.902582752989056 15.343906800813953
37 1 0.0 0.0 16.24648955380301
38 1 0.902582752989056 0.902582752989056 16.24648955380301
39 1 0.902582752989056 0.0 17.149072306792064
40 1 0.0 0.902582752989056 17.149072306792064
41 1 0.0 0.0 18.05165505978112
42 1 0.902582752989056 0.902582752989056 18.05165505978112
43 1 0.902582752989056 0.0 18.954237812770174
44 1 0.0 0.902582752989056 18.954237812770174
45 1 0.0 0.0 19.856820565759232
46 1 0.902582752989056 0.902582752989056 19.856820565759232
47 1 0.902582752989056 0.0 20.759403318748287
48 1 0.0 0.902582752989056 20.759403318748287
49 1 0.0 0.0 21.661986071737346
50 1 0.902582752989056 0.902582752989056 21.661986071737346
51 1 0.902582752989056 0.0 22.5645688247264
52 1 0.0 0.902582752989056 22.5645688247264
53 1 0.0 0.0 23.467151577715455
54 1 0.902582752989056 0.902582752989056 23.467151577715455
55 1 0.902582752989056 0.0 24.36973433070451
56 1 0.0 0.902582752989056 24.36973433070451
57 1 0.0 0.0 25.27231708369357
58 1 0.902582752989056 0.902582752989056 25.27231708369357
59 1 0.902582752989056 0.0 26.174899836682624
60 1 0.0 0.902582752989056 26.174899836682624
61 1 0.0 1.805165505978112 0.0
62 1 0.902582752989056 2.707748258967168 0.0
63 1 0.902582752989056 1.805165505978112 0.902582752989056
64 1 0.0 2.707748258967168 0.902582752989056
65 1 0.0 1.805165505978112 1.805165505978112
66 1 0.902582752989056 2.707748258967168 1.805165505978112
67 1 0.902582752989056 1.805165505978112 2.707748258967168
68 1 0.0 2.707748258967168 2.707748258967168
69 1 0.0 1.805165505978112 3.610331011956224
70 1 0.902582752989056 2.707748258967168 3.610331011956224
71 1 0.902582752989056 1.805165505978112 4.51291376494528
72 1 0.0 2.707748258967168 4.51291376494528
73 1 0.0 1.805165505978112 5.415496517934336
74 1 0.902582752989056 2.707748258967168 5.415496517934336
75 1 0.902582752989056 1.805165505978112 6.318079270923392
76 1 0.0 2.707748258967168 6.318079270923392
77 1 0.0 1.805165505978112 7.220662023912448
78 1 0.902582752989056 2.707748258967168 7.220662023912448
79 1 0.902582752989056 1.805165505978112 8.123244776901505
80 1 0.0 2.707748258967168 8.123244776901505
81 1 0.0 1.805165505978112 9.02582752989056
82 1 0.902582752989056 2.707748258967168 9.02582752989056
83 1 0.902582752989056 1.805165505978112 9.928410282879616
84 1 0.0 2.707748258967168 9.928410282879616
85 1 0.0 1.805165505978112 10.830993035868673
86 1 0.902582752989056 2.707748258967168 10.830993035868673
87 1 0.902582752989056 1.805165505978112 11.73357578885773
88 1 0.0 2.707748258967168 11.73357578885773
89 1 0.0 1.805165505978112 12.636158541846784
90 1 0.902582752989056 2.707748258967168 12.636158541846784
91 1 0.902582752989056 1.805165505978112 13.538741294835841
92 1 0.0 2.707748258967168 13.538741294835841
93 1 0.0 1.805165505978112 14.441324047824896
94 1 0.902582752989056 2.707748258967168 14.441324047824896
95 1 0.902582752989056 1.805165505978112 15.343906800813953
96 1 0.0 2.707748258967168 15.343906800813953
97 1 0.0 1.805165505978112 16.24648955380301
98 1 0.902582752989056 2.707748258967168 16.24648955380301
99 1 0.902582752989056 1.805165505978112 17.149072306792064
100 1 0.0 2.707748258967168 17.149072306792064
101 1 0.0 1.805165505978112 18.05165505978112
102 1 0.902582752989056 2.707748258967168 18.05165505978112
103 1 0.902582752989056 1.805165505978112 18.954237812770174
104 1 0.0 2.707748258967168 18.954237812770174
105 1 0.0 1.805165505978112 19.856820565759232
106 1 0.902582752989056 2.707748258967168 19.856820565759232
107 1 0.902582752989056 1.805165505978112 20.759403318748287
108 1 0.0 2.707748258967168 20.759403318748287
109 1 0.0 1.805165505978112 21.661986071737346
110 1 0.902582752989056 2.707748258967168 21.661986071737346
111 1 0.902582752989056 1.805165505978112 22.5645688247264
112 1 0.0 2.707748258967168 22.5645688247264
113 1 0.0 1.805165505978112 23.467151577715455
114 1 0.902582752989056 2.707748258967168 23.467151577715455
115 1 0.902582752989056 1.805165505978112 24.36973433070451
116 1 0.0 2.707748258967168 24.36973433070451
117 1 0.0 1.805165505978112 25.27231708369357
118 1 0.902582752989056 2.707748258967168 25.27231708369357
119 1 0.902582752989056 1.805165505978112 26.174899836682624
120 1 0.0 2.707748258967168 26.174899836682624
121 1 0.0 3.610331011956224 0.0
122 1 0.902582752989056 4.51291376494528 0.0
123 1 0.902582752989056 3.610331011956224 0.902582752989056
124 1 0.0 4.51291376494528 0.902582752989056
125 1 0.0 3.610331011956224 1.805165505978112
126 1 0.902582752989056 4.51291376494528 1.805165505978112
127 1 0.902582752989056 3.610331011956224 2.707748258967168
128 1 0.0 4.51291376494528 2.707748258967168
129 1 0.0 3.610331011956224 3.610331011956224
130 1 0.902582752989056 4.51291376494528 3.610331011956224
131 1 0.902582752989056 3.610331011956224 4.51291376494528
132 1 0.0 4.51291376494528 4.51291376494528
133 1 0.0 3.610331011956224 5.415496517934336
134 1 0.902582752989056 4.51291376494528 5.415496517934336
135 1 0.902582752989056 3.610331011956224 6.318079270923392
136 1 0.0 4.51291376494528 6.318079270923392
137 1 0.0 3.610331011956224 7.220662023912448
138 1 0.902582752989056 4.51291376494528 7.220662023912448
139 1 0.902582752989056 3.610331011956224 8.123244776901505
140 1 0.0 4.51291376494528 8.123244776901505
141 1 0.0 3.610331011956224 9.02582752989056
142 1 0.902582752989056 4.51291376494528 9.02582752989056
143 1 0.902582752989056 3.610331011956224 9.928410282879616
144 1 0.0 4.51291376494528 9.928410282879616
145 1 0.0 3.610331011956224 10.830993035868673
146 1 0.902582752989056 4.51291376494528 10.830993035868673
147 1 0.902582752989056 3.610331011956224 11.73357578885773
148 1 0.0 4.51291376494528 11.73357578885773
149 1 0.0 3.610331011956224 12.636158541846784
150 1 0.902582752989056 4.51291376494528 12.636158541846784
151 1 0.902582752989056 3.610331011956224 13.538741294835841
152 1 0.0 4.51291376494528 13.538741294835841
153 1 0.0 3.610331011956224 14.441324047824896
154 1 0.902582752989056 4.51291376494528 14.441324047824896
155 1 0.902582752989056 3.610331011956224 15.343906800813953
156 1 0.0 4.51291376494528 15.343906800813953
157 1 0.0 3.610331011956224 16.24648955380301
158 1 0.902582752989056 4.51291376494528 16.24648955380301
159 1 0.902582752989056 3.610331011956224 17.149072306792064
160 1 0.0 4.51291376494528 17.149072306792064
161 1 0.0 3.610331011956224 18.05165505978112
162 1 0.902582752989056 4.51291376494528 18.05165505978112
163 1 0.902582752989056 3.610331011956224 18.954237812770174
164 1 0.0 4.51291376494528 18.954237812770174
165 1 0.0 3.610331011956224 19.856820565759232
166 1 0.902582752989056 4.51291376494528 19.856820565759232
167 1 0.902582752989056 3.610331011956224 20.759403318748287
168 1 0.0 4.51291376494528 20.759403318748287
169 1 0.0 3.610331011956224 21.661986071737346
170 1 0.902582752989056 4.51291376494528 21.661986071737346
171 1 0.902582752989056 3.610331011956224 22.5645688247264
172 1 0.0 4.51291376494528 22.5645688247264
173 1 0.0 3.610331011956224 23.467151577715455
174 1 0.902582752989056 4.51291376494528 23.467151577715455
175 1 0.902582752989056 3.610331011956224 24.36973433070451
176 1 0.0 4.51291376494528 24.36973433070451
177 1 0.0 3.610331011956224 25.27231708369357
178 1 0.902582752989056 4.51291376494528 25.27231708369357
179 1 0.902582752989056 3.610331011956224 26.174899836682624
180 1 0.0 4.51291376494528 26.174899836682624
181 1 0.0 5.415496517934336 0.0
182 1 0.902582752989056 6.318079270923392 0.0
183 1 0.902582752989056 5.415496517934336 0.902582752989056
184 1 0.0 6.318079270923392 0.902582752989056
185 1 0.0 5.415496517934336 1.805165505978112
186 1 0.902582752989056 6.318079270923392 1.805165505978112
187 1 0.902582752989056 5.415496517934336 2.707748258967168
188 1 0.0 6.318079270923392 2.707748258967168
189 1 0.0 5.415496517934336 3.610331011956224
190 1 0.902582752989056 6.318079270923392 3.610331011956224
191 1 0.902582752989056 5.415496517934336 4.51291376494528
192 1 0.0 6.318079270923392 4.51291376494528
193 1 0.0 5.415496517934336 5.415496517934336
194 1 0.902582752989056 6.318079270923392 5.415496517934336
195 1 0.902582752989056 5.415496517934336 6.318079270923392
196 1 0.0 6.318079270923392 6.318079270923392
197 1 0.0 5.415496517934336 7.220662023912448
198 1 0.902582752989056 6.318079270923392 7.220662023912448
199 1 0.902582752989056 5.415496517934336 8.123244776901505
200 1 0.0 6.318079270923392 8.123244776901505
201 1 0.0 5.415496517934336 9.02582752989056
202 1 0.902582752989056 6.318079270923392 9.02582752989056
203 1 0.902582752989056 5.415496517934336 9.928410282879616
204 1 0.0 6.318079270923392 9.928410282879616
205 1 0.0 5.415496517934336 10.830993035868673
206 1 0.902582752989056 6.318079270923392 10.830993035868673
207 1 0.902582752989056 5.415496517934336 11.73357578885773
208 1 0.0 6.318079270923392 11.73357578885773
209 1 0.0 5.415496517934336 12.636158541846784
210 1 0.902582752989056 6.318079270923392 12.636158541846784
211 1 0.902582752989056 5.415496517934336 13.538741294835841
212 1 0.0 6.318079270923392 13.538741294835841
213 1 0.0 5.415496517934336 14.441324047824896
214 1 0.902582752989056 6.318079270923392 14.441324047824896
215 1 0.902582752989056 5.415496517934336 15.343906800813953
216 1 0.0 6.318079270923392 15.343906800813953
217 1 0.0 5.415496517934336 16.24648955380301
218 1 0.902582752989056 6.318079270923392 16.24648955380301
219 1 0.902582752989056 5.415496517934336 17.149072306792064
220 1 0.0 6.318079270923392 17.149072306792064
221 1 0.0 5.415496517934336 18.05165505978112
222 1 0.902582752989056 6.318079270923392 18.05165505978112
223 1 0.902582752989056 5.415496517934336 18.954237812770174
224 1 0.0 6.318079270923392 18.954237812770174
225 1 0.0 5.415496517934336 19.856820565759232
226 1 0.902582752989056 6.318079270923392 19.856820565759232
227 1 0.902582752989056 5.415496517934336 20.759403318748287
228 1 0.0 6.318079270923392 20.759403318748287
229 1 0.0 5.415496517934336 21.661986071737346
230 1 0.902582752989056 6.318079270923392 21.661986071737346
231 1 0.902582752989056 5.415496517934336 22.5645688247264
232 1 0.0 6.318079270923392 22.5645688247264
233 1 0.0 5.415496517934336 23.467151577715455
234 1 0.902582752989056 6.318079270923392 23.467151577715455
235 1 0.902582752989056 5.415496517934336 24.36973433070451
236 1 0.0 6.318079270923392 24.36973433070451
237 1 0.0 5.415496517934336 25.27231708369357
238 1 0.902582752989056 6.318079270923392 25.27231708369357
239 1 0.902582752989056 5.415496517934336 26.174899836682624
240 1 0.0 6.318079270923392 26.174899836682624
241 1 0.0 7.220662023912448 0.0
242 1 0.902582752989056 8.123244776901505 0.0
243 1 0.902582752989056 7.220662023912448 0.902582752989056
244 1 0.0 8.123244776901505 0.902582752989056
245 1 0.0 7.220662023912448 1.805165505978112
246 1 0.902582752989056 8.123244776901505 1.805165505978112
247 1 0.902582752989056 7.220662023912448 2.707748258967168
248 1 0.0 8.123244776901505 2.707748258967168
249 1 0.0 7.220662023912448 3.610331011956224
250 1 0.902582752989056 8.123244776901505 3.610331011956224
251 1 0.902582752989056 7.220662023912448 4.51291376494528
252 1 0.0 8.123244776901505 4.51291376494528
253 1 0.0 7.220662023912448 5.415496517934336
254 1 0.902582752989056 8.123244776901505 5.415496517934336
255 1 0.902582752989056 7.220662023912448 6.318079270923392
256 1 0.0 8.123244776901505 6.318079270923392
257 1 0.0 7.220662023912448 7.220662023912448
258 1 0.902582752989056 8.123244776901505 7.220662023912448
259 1 0.902582752989056 7.220662023912448 8.123244776901505
260 1 0.0 8.123244776901505 8.123244776901505
261 1 0.0 7.220662023912448 9.02582752989056
262 1 0.902582752989056 8.123244776901505 9.02582752989056
263 1 0.902582752989056 7.220662023912448 9.928410282879616
264 1 0.0 8.123244776901505 9.928410282879616
265 1 0.0 7.220662023912448 10.830993035868673
266 1 0.902582752989056 8.123244776901505 10.830993035868673
267 1 0.902582752989056 7.220662023912448 11.73357578885773
268 1 0.0 8.123244776901505 11.73357578885773
269 1 0.0 7.220662023912448 12.636158541846784
270 1 0.902582752989056 8.123244776901505 12.636158541846784
271 1 0.902582752989056 7.220662023912448 13.538741294835841
272 1 0.0 8.123244776901505 13.538741294835841
273 1 0.0 7.220662023912448 14.441324047824896
274 1 0.902582752989056 8.123244776901505 14.441324047824896
275 1 0.902582752989056 7.220662023912448 15.343906800813953
276 1 0.0 8.123244776901505 15.343906800813953
277 1 0.0 7.220662023912448 16.24648955380301
278 1 0.902582752989056 8.123244776901505 16.24648955380301
279 1 0.902582752989056 7.220662023912448 17.149072306792064
280 1 0.0 8.123244776901505 17.149072306792064
281 1 0.0 7.220662023912448 18.05165505978112
282 1 0.902582752989056 8.123244776901505 18.05165505978112
283 1 0.902582752989056 7.220662023912448 18.954237812770174
284 1 0.0 8.123244776901505 18.954237812770174
285 1 0.0 7.220662023912448 19.856820565759232
286 1 0.902582752989056 8.123244776901505 19.856820565759232
287 1 0.902582752989056 7.220662023912448 20.759403318748287
288 1 0.0 8.123244776901505 20.759403318748287
289 1 0.0 7.220662023912448 21.661986071737346
290 1 0.902582752989056 8.123244776901505 21.661986071737346
291 1 0.902582752989056 7.220662023912448 22.5645688247264
292 1 0.0 8.123244776901505 22.5645688247264
293 1 0.0 7.220662023912448 23.467151577715455
294 1 0.902582752989056 8.123244776901505 23.467151577715455
295 1 0.902582752989056 7.220662023912448 24.36973433070451
296 1 0.0 8.123244776901505 24.36973433070451
297 1 0.0 7.220662023912448 25.27231708369357
298 1 0.902582752989056 8.123244776901505 25.27231708369357
299 1 0.902582752989056 7.220662023912448 26.174899836682624
300 1 0.0 8.123244776901505 26.174899836682624
301 1 0.0 9.02582752989056 0.0
302 1 0.902582752989056 9.928410282879616 0.0
303 1 0.902582752989056 9.02582752989056 0.902582752989056
304 1 0.0 9.928410282879616 0.902582752989056
305 1 0.0 9.02582752989056 1.805165505978112
306 1 0.902582752989056 9.928410282879616 1.805165505978112
307 1 0.902582752989056 9.02582752989056 2.707748258967168
308 1 0.0 9.928410282879616 2.707748258967168
309 1 0.0 9.02582752989056 3.610331011956224
310 1 0.902582752989056 9.928410282879616 3.610331011956224
311 1 0.902582752989056 9.02582752989056 4.51291376494528
312 1 0.0 9.928410282879616 4.51291376494528
313 1 0.0 9.02582752989056 5.415496517934336
314 1 0.902582752989056 9.928410282879616 5.415496517934336
315 1 0.902582752989056 9.02582752989056 6.318079270923392
316 1 0.0 9.928410282879616 6.318079270923392
317 1 0.0 9.02582752989056 7.220662023912448
318 1 0.902582752989056 9.928410282879616 7.220662023912448
319 1 0.902582752989056 9.02582752989056 8.123244776901505
320 1 0.0 9.928410282879616 8.123244776901505
321 1 0.0 9.02582752989056 9.02582752989056
322 1 0.902582752989056 9.928410282879616 9.02582752989056
323 1 0.902582752989056 9.02582752989056 9.928410282879616
324 1 0.0 9.928410282879616 9.928410282879616
325 1 0.0 9.02582752989056 10.830993035868673
326 1 0.902582752989056 9.928410282879616 10.830993035868673
327 1 0.902582752989056 9.02582752989056 11.73357578885773
328 1 0.0 9.928410282879616 11.73357578885773
329 1 0.0 9.02582752989056 12.636158541846784
330 1 0.902582752989056 9.928410282879616 12.636158541846784
331 1 0.902582752989056 9.02582752989056 13.538741294835841
332 1 0.0 9.928410282879616 13.538741294835841
333 1 0.0 9.02582752989056 14.441324047824896
334 1 0.902582752989056 9.928410282879616 14.441324047824896
335 1 0.902582752989056 9.02582752989056 15.343906800813953
336 1 0.0 9.928410282879616 15.343906800813953
337 1 0.0 9.02582752989056 16.24648955380301
338 1 0.902582752989056 9.928410282879616 16.24648955380301
339 1 0.902582752989056 9.02582752989056 17.149072306792064
340 1 0.0 9.928410282879616 17.149072306792064
341 1 0.0 9.02582752989056 18.05165505978112
342 1 0.902582752989056 9.928410282879616 18.05165505978112
343 1 0.902582752989056 9.02582752989056 18.954237812770174
344 1 0.0 9.928410282879616 18.954237812770174
345 1 0.0 9.02582752989056 19.856820565759232
346 1 0.902582752989056 9.928410282879616 19.856820565759232
347 1 0.902582752989056 9.02582752989056 20.759403318748287
348 1 0.0 9.928410282879616 20.759403318748287
349 1 0.0 9.02582752989056 21.661986071737346
350 1 0.902582752989056 9.928410282879616 21.661986071737346
351 1 0.902582752989056 9.02582752989056 22.5645688247264
352 1 0.0 9.928410282879616 22.5645688247264
353 1 0.0 9.02582752989056 23.467151577715455
354 1 0.902582752989056 9.928410282879616 23.467151577715455
355 1 0.902582752989056 9.02582752989056 24.36973433070451
356 1 0.0 9.928410282879616 24.36973433070451
357 1 0.0 9.02582752989056 25.27231708369357
358 1 0.902582752989056 9.928410282879616 25.27231708369357
359 1 0.902582752989056 9.02582752989056 26.174899836682624
360 1 0.0 9.928410282879616 26.174899836682624
361 1 0.0 10.830993035868673 0.0
362 1 0.902582752989056 11.73357578885773 0.0
363 1 0.902582752989056 10.830993035868673 0.902582752989056
364 1 0.0 11.73357578885773 0.902582752989056
365 1 0.0 10.830993035868673 1.805165505978112
366 1 0.902582752989056 11.73357578885773 1.805165505978112
367 1 0.902582752989056 10.830993035868673 2.707748258967168
368 1 0.0 11.73357578885773 2.707748258967168
369 1 0.0 10.830993035868673 3.610331011956224
370 1 0.902582752989056 11.73357578885773 3.610331011956224
371 1 0.902582752989056 10.830993035868673 4.51291376494528
372 1 0.0 11.73357578885773 4.51291376494528
373 1 0.0 10.830993035868673 5.415496517934336
374 1 0.902582752989056 11.73357578885773 5.415496517934336
375 1 0.902582752989056 10.830993035868673 6.318079270923392
376 1 0.0 11.73357578885773 6.318079270923392
377 1 0.0 10.830993035868673 7.220662023912448
378 1 0.902582752989056 11.73357578885773 7.220662023912448
379 1 0.902582752989056 10.830993035868673 8.123244776901505
380 1 0.0 11.73357578885773 8.123244776901505
381 1 0.0 10.830993035868673 9.02582752989056
382 1 0.902582752989056 11.73357578885773 9.02582752989056
383 1 0.902582752989056 10.830993035868673 9.928410282879616
384 1 0.0 11.73357578885773 9.928410282879616
385 1 0.0 10.830993035868673 10.830993035868673
386 1 0.902582752989056 11.73357578885773 10.830993035868673
387 1 0.902582752989056 10.830993035868673 11.73357578885773
388 1 0.0 11.73357578885773 11.73357578885773
389 1 0.0 10.830993035868673 12.636158541846784
390 1 0.902582752989056 11.73357578885773 12.636158541846784
391 1 0.902582752989056 10.830993035868673 13.538741294835841
392 1 0.0 11.73357578885773 13.538741294835841
393 1 0.0 10.830993035868673 14.441324047824896
394 1 0.902582752989056 11.73357578885773 14.441324047824896
395 1 0.902582752989056 10.830993035868673 15.343906800813953
396 1 0.0 11.73357578885773 15.343906800813953
397 1 0.0 10.830993035868673 16.24648955380301
398 1 0.902582752989056 11.73357578885773 16.24648955380301
399 1 0.902582752989056 10.830993035868673 17.149072306792064
400 1 0.0 11.73357578885773 17.149072306792064
401 1 0.0 10.830993035868673 18.05165505978112
402 1 0.902582752989056 11.73357578885773 18.05165505978112
403 1 0.902582752989056 10.830993035868673 18.954237812770174
404 1 0.0 11.73357578885773 18.954237812770174
405 1 0.0 10.830993035868673 19.856820565759232
406 1 0.902582752989056 11.73357578885773 19.856820565759232
407 1 0.902582752989056 10.830993035868673 20.759403318748287
408 1 0.0 11.73357578885773 20.759403318748287
409 1 0.0 10.830993035868673 21.661986071737346
410 1 0.902582752989056 11.73357578885773 21.661986071737346
411 1 0.902582752989056 10.830993035868673 22.5645688247264
412 1 0.0 11.73357578885773 22.5645688247264
413 1 0.0 10.830993035868673 23.467151577715455
414 1 0.902582752989056 11.73357578885773 23.467151577715455
415 1 0.902582752989056 10.830993035868673 24.36973433070451
416 1 0.0 11.73357578885773 24.36973433070451
417 1 0.0 10.830993035868673 25.27231708369357
418 1 0.902582752989056 11.73357578885773 25.27231708369357
419 1 0.902582752989056 10.830993035868673 26.174899836682624
420 1 0.0 11.73357578885773 26.174899836682624
421 1 0.0 12.636158541846784 0.0
422 1 0.902582752989056 13.538741294835841 0.0
423 1 0.902582752989056 12.636158541846784 0.902582752989056
424 1 0.0 13.538741294835841 0.902582752989056
425 1 0.0 12.636158541846784 1.805165505978112
426 1 0.902582752989056 13.538741294835841 1.805165505978112
427 1 0.902582752989056 12.636158541846784 2.707748258967168
428 1 0.0 13.538741294835841 2.707748258967168
429 1 0.0 12.636158541846784 3.610331011956224
430 1 0.902582752989056 13.538741294835841 3.610331011956224
431 1 0.902582752989056 12.636158541846784 4.51291376494528
432 1 0.0 13.538741294835841 4.51291376494528
433 1 0.0 12.636158541846784 5.415496517934336
434 1 0.902582752989056 13.538741294835841 5.415496517934336
435 1 0.902582752989056 12.636158541846784 6.318079270923392
436 1 0.0 13.538741294835841 6.318079270923392
437 1 0.0 12.636158541846784 7.220662023912448
438 1 0.902582752989056 13.538741294835841 7.220662023912448
439 1 0.902582752989056 12.636158541846784 8.123244776901505
440 1 0.0 13.538741294835841 8.123244776901505
441 1 0.0 12.636158541846784 9.02582752989056
442 1 0.902582752989056 13.538741294835841 9.02582752989056
443 1 0.902582752989056 12.636158541846784 9.928410282879616
444 1 0.0 13.538741294835841 9.928410282879616
445 1 0.0 12.636158541846784 10.830993035868673
446 1 0.902582752989056 13.538741294835841 10.830993035868673
447 1 0.902582752989056 12.636158541846784 11.73357578885773
448 1 0.0 13.538741294835841 11.73357578885773
449 1 0.0 12.636158541846784 12.636158541846784
450 1 0.902582752989056 13.538741294835841 12.636158541846784
451 1 0.902582752989056 12.636158541846784 13.538741294835841
452 1 0.0 13.538741294835841 13.538741294835841
453 1 0.0 12.636158541846784 14.441324047824896
454 1 0.902582752989056 13.538741294835841 14.441324047824896
455 1 0.902582752989056 12.636158541846784 15.343906800813953
456 1 0.0 13.538741294835841 15.343906800813953
457 1 0.0 12.636158541846784 16.24648955380301
458 1 0.902582752989056 13.538741294835841 16.24648955380301
459 1 0.902582752989056 12.636158541846784 17.149072306792064
460 1 0.0 13.538741294835841 17.149072306792064
461 1 0.0 12.636158541846784 18.05165505978112
462 1 0.902582752989056 13.538741294835841 18.05165505978112
463 1 0.902582752989056 12.636158541846784 18.954237812770174
464 1 0.0 13.538741294835841 18.954237812770174
465 1 0.0 12.636158541846784 19.856820565759232
466 1 0.902582752989056 13.538741294835841 19.856820565759232
467 1 0.902582752989056 12.636158541846784 20.759403318748287
468 1 0.0 13.538741294835841 20.759403318748287
469 1 0.0 12.636158541846784 21.661986071737346
470 1 0.902582752989056 13.538741294835841 21.661986071737346
471 1 0.902582752989056 12.636158541846784 22.5645688247264
472 1 0.0 13.538741294835841 22.5645688247264
473 1 0.0 12.636158541846784 23.467151577715455
474 1 0.902582752989056 13.538741294835841 23.467151577715455
475 1 0.902582752989056 12.636158541846784 24.36973433070451
476 1 0.0 13.538741294835841 24.36973433070451
477 1 0.0 12.636158541846784 25.27231708369357
478 1 0.902582752989056 13.538741294835841 25.27231708369357
479 1 0.902582752989056 12.636158541846784 26.174899836682624
480 1 0.0 13.538741294835841 26.174899836682624
481 1 0.0 14.441324047824896 0.0
482 1 0.902582752989056 15.343906800813953 0.0
483 1 0.902582752989056 14.441324047824896 0.902582752989056
484 1 0.0 15.343906800813953 0.902582752989056
485 1 0.0 14.441324047824896 1.805165505978112
486 1 0.902582752989056 15.343906800813953 1.805165505978112
487 1 0.902582752989056 14.441324047824896 2.707748258967168
488 1 0.0 15.343906800813953 2.707748258967168
489 1 0.0 14.441324047824896 3.610331011956224
490 1 0.902582752989056 15.343906800813953 3.610331011956224
491 1 0.902582752989056 14.441324047824896 4.51291376494528
492 1 0.0 15.343906800813953 4.51291376494528
493 1 0.0 14.441324047824896 5.415496517934336
494 1 0.902582752989056 15.343906800813953 5.415496517934336
495 1 0.902582752989056 14.441324047824896 6.318079270923392
496 1 0.0 15.343906800813953 6.318079270923392
497 1 0.0 14.441324047824896 7.220662023912448
498 1 0.902582752989056 15.343906800813953 7.220662023912448
499 1 0.902582752989056 14.441324047824896 8.123244776901505
500 1 0.0 15.343906800813953 8.123244776901505
501 1 0.0 14.441324047824896 9.02582752989056
502 1 0.902582752989056 15.343906800813953 9.02582752989056
503 1 0.902582752989056 14.441324047824896 9.928410282879616
504 1 0.0 15.343906800813953 9.928410282879616
505 1 0.0 14.441324047824896 10.830993035868673
506 1 0.902582752989056 15.343906800813953 10.830993035868673
507 1 0.902582752989056 14.441324047824896 11.73357578885773
508 1 0.0 15.343906800813953 11.73357578885773
509 1 0.0 14.441324047824896 12.636158541846784
510 1 0.902582752989056 15.343906800813953 12.636158541846784
511 1 0.902582752989056 14.441324047824896 13.538741294835841
512 1 0.0 15.343906800813953 13.538741294835841
513 1 0.0 14.441324047824896 14.441324047824896
514 1 0.902582752989056 15.343906800813953 14.441324047824896
515 1 0.902582752989056 14.441324047824896 15.343906800813953
516 1 0.0 15.343906800813953 15.343906800813953
517 1 0.0 14.441324047824896 16.24648955380301
518 1 0.902582752989056 15.343906800813953 16.24648955380301
519 1 0.902582752989056 14.441324047824896 17.149072306792064
520 1 0.0 15.343906800813953 17.149072306792064
521 1 0.0 14.441324047824896 18.05165505978112
522 1 0.902582752989056 15.343906800813953 18.05165505978112
523 1 0.902582752989056 14.441324047824896 18.954237812770174
524 1 0.0 15.343906800813953 18.954237812770174
525 1 0.0 14.441324047824896 19.856820565759232
526 1 0.902582752989056 15.343906800813953 19.856820565759232
527 1 0.902582752989056 14.441324047824896 20.759403318748287
528 1 0.0 15.343906800813953 20.759403318748287
529 1 0.0 14.441324047824896 21.661986071737346
530 1 0.902582752989056 15.343906800813953 21.661986071737346
531 1 0.902582752989056 14.441324047824896 22.5645688247264
532 1 0.0 15.343906800813953 22.5645688247264
533 1 0.0 14.441324047824896 23.467151577715455
534 1 0.902582752989056 15.343906800813953 23.467151577715455
535 1 0.902582752989056 14.441324047824896 24.36973433070451
536 1 0.0 15.343906800813953 24.36973433070451
537 1 0.0 14.441324047824896 25.27231708369357
538 1 0.902582752989056 15.343906800813953 25.27231708369357
539 1 0.902582752989056 14.441324047824896 26.174899836682624
540 1 0.0 15.343906800813953 26.174899836682624
541 1 0.0 16.24648955380301 0.0
542 1 0.902582752989056 17.149072306792064 0.0
543 1 0.902582752989056 16.24648955380301 0.902582752989056
544 1 0.0 17.149072306792064 0.902582752989056
545 1 0.0 16.24648955380301 1.805165505978112
546 1 0.902582752989056 17.149072306792064 1.805165505978112
547 1 0.902582752989056 16.24648955380301 2.707748258967168
548 1 0.0 17.149072306792064 2.707748258967168
549 1 0.0 16.24648955380301 3.610331011956224
550 1 0.902582752989056 17.149072306792064 3.610331011956224
551 1 0.902582752989056 16.24648955380301 4.51291376494528
552 1 0.0 17.149072306792064 4.51291376494528
553 1 0.0 16.24648955380301 5.415496517934336
554 1 0.902582752989056 17.149072306792064 5.415496517934336
555 1 0.902582752989056 16.24648955380301 6.318079270923392
556 1 0.0 17.149072306792064 6.318079270923392
557 1 0.0 16.24648955380301 7.220662023912448
558 1 0.902582752989056 17.149072306792064 7.220662023912448
559 1 0.902582752989056 16.24648955380301 8.123244776901505
560 1 0.0 17.149072306792064 8.123244776901505
561 1 0.0 16.24648955380301 9.02582752989056
562 1 0.902582752989056 17.149072306792064 9.02582752989056
563 1 0.902582752989056 16.24648955380301 9.928410282879616
564 1 0.0 17.149072306792064 9.928410282879616
565 1 0.0 16.24648955380301 10.830993035868673
566 1 0.902582752989056 17.149072306792064 10.830993035868673
567 1 0.902582752989056 16.24648955380301 11.73357578885773
568 1 0.0 17.149072306792064 11.73357578885773
569 1 0.0 16.24648955380301 12.636158541846784
570 1 0.902582752989056 17.149072306792064 12.636158541846784
571 1 0.902582752989056 16.24648955380301 13.538741294835841
572 1 0.0 17.149072306792064 13.538741294835841
573 1 0.0 16.24648955380301 14.441324047824896