Position Data

13500 atoms
1 atom types

0.0 51.2992784003009 xlo xhi
0.0 25.64963920015045 ylo yhi
0.0 25.64963920015045 zlo zhi

Atoms

1 1 0.0 0.0 0.0
2 1 0.8549879733383483 0.8549879733383483 0.0
3 1 0.8549879733383483 0.0 0.8549879733383483
4 1 0.0 0.8549879733383483 0.8549879733383483
5 1 0.0 0.0 1.7099759466766966
6 1 0.8549879733383483 0.8549879733383483 1.7099759466766966
7 1 0.8549879733383483 0.0 2.564963920015045
8 1 0.0 0.8549879733383483 2.564963920015045
9 1 0.0 0.0 3.4199518933533932
10 1 0.8549879733383483 0.8549879733383483 3.4199518933533932
11 1 0.8549879733383483 0.0 4.274939866691741
12 1 0.0 0.8549879733383483 4.274939866691741
13 1 0.0 0.0 5.12992784003009
14 1 0.8549879733383483 0.8549879733383483 5.12992784003009
15 1 0.8549879733383483 0.0 5.984915813368438
16 1 0.0 0.8549879733383483 5.984915813368438
17 1 0.0 0.0 6.8399037867067864
18 1 0.8549879733383483 0.8549879733383483 6.8399037867067864
19 1 0.8549879733383483 0.0 7.6948917600451345
20 1 0.0 0.8549879733383483 7.6948917600451345
21 1 0.0 0.0 8.549879733383483
22 1 0.8549879733383483 0.8549879733383483 8.549879733383483
23 1 0.8549879733383483 0.0 9.40486770672183
24 1 0.0 0.8549879733383483 9.40486770672183
25 1 0.0 0.0 10.25985568006018
26 1 0.8549879733383483 0.8549879733383483 10.25985568006018
27 1 0.8549879733383483 0.0 11.114843653398529
28 1 0.0 0.8549879733383483 11.114843653398529
29 1 0.0 0.0 11.969831626736877
30 1 0.8549879733383483 0.8549879733383483 11.969831626736877
31 1 0.8549879733383483 0.0 12.824819600075225
32 1 0.0 0.8549879733383483 12.824819600075225
33 1 0.0 0.0 13.679807573413573
34 1 0.8549879733383483 0.8549879733383483 13.679807573413573
35 1 0.8549879733383483 0.0 14.534795546751921
36 1 0.0 0.8549879733383483 14.534795546751921
37 1 0.0 0.0 15.389783520090269
38 1 0.8549879733383483 0.8549879733383483 15.389783520090269
39 1 0.8549879733383483 0.0 16.24477149342862
40 1 0.0 0.8549879733383483 16.24477149342862
41 1 0.0 0.0 17.099759466766965
42 1 0.8549879733383483 0.8549879733383483 17.099759466766965
43 1 0.8549879733383483 0.0 17.954747440105315
44 1 0.0 0.8549879733383483 17.954747440105315
45 1 0.0 0.0 18.80973541344366
46 1 0.8549879733383483 0.8549879733383483 18.80973541344366
47 1 0.8549879733383483 0.0 19.66472338678201
48 1 0.0 0.8549879733383483 19.66472338678201
49 1 0.0 0.0 20.51971136012036
50 1 0.8549879733383483 0.8549879733383483 20.51971136012036
51 1 0.8549879733383483 0.0 21.37469933345871
52 1 0.0 0.8549879733383483 21.37469933345871
53 1 0.0 0.0 22.229687306797057
54 1 0.8549879733383483 0.8549879733383483 22.229687306797057
55 1 0.8549879733383483 0.0 23.084675280135407
56 1 0.0 0.8549879733383483 23.084675280135407
57 1 0.0 0.0 23.939663253473753
58 1 0.8549879733383483 0.8549879733383483 23.939663253473753
59 1 0.8549879733383483 0.0 24.794651226812103
60 1 0.0 0.8549879733383483 24.794651226812103
61 1 0.0 1.7099759466766966 0.0
62 1 0.8549879733383483 2.564963920015045 0.0
63 1 0.8549879733383483 1.7099759466766966 0.8549879733383483
64 1 0.0 2.564963920015045 0.8549879733383483
65 1 0.0 1.7099759466766966 1.7099759466766966
66 1 0.8549879733383483 2.564963920015045 1.7099759466766966
67 1 0.8549879733383483 1.7099759466766966 2.564963920015045
68 1 0.0 2.564963920015045 2.564963920015045
69 1 0.0 1.7099759466766966 3.4199518933533932
70 1 0.8549879733383483 2.564963920015045 3.4199518933533932
71 1 0.8549879733383483 1.7099759466766966 4.274939866691741
72 1 0.0 2.564963920015045 4.274939866691741
73 1 0.0 1.7099759466766966 5.12992784003009
74 1 0.8549879733383483 2.564963920015045 5.12992784003009
75 1 0.8549879733383483 1.7099759466766966 5.984915813368438
76 1 0.0 2.564963920015045 5.984915813368438
77 1 0.0 1.7099759466766966 6.8399037867067864
78 1 0.8549879733383483 2.564963920015045 6.8399037867067864
79 1 0.8549879733383483 1.7099759466766966 7.6948917600451345
80 1 0.0 2.564963920015045 7.6948917600451345
81 1 0.0 1.7099759466766966 8.549879733383483
82 1 0.8549879733383483 2.564963920015045 8.549879733383483
83 1 0.8549879733383483 1.7099759466766966 9.40486770672183
84 1 0.0 2.564963920015045 9.40486770672183
85 1 0.0 1.7099759466766966 10.25985568006018
86 1 0.8549879733383483 2.564963920015045 10.25985568006018
87 1 0.8549879733383483 1.7099759466766966 11.114843653398529
88 1 0.0 2.564963920015045 11.114843653398529
89 1 0.0 1.7099759466766966 11.969831626736877
90 1 0.8549879733383483 2.564963920015045 11.969831626736877
91 1 0.8549879733383483 1.7099759466766966 12.824819600075225
92 1 0.0 2.564963920015045 12.824819600075225
93 1 0.0 1.7099759466766966 13.679807573413573
94 1 0.8549879733383483 2.564963920015045 13.679807573413573
95 1 0.8549879733383483 1.7099759466766966 14.534795546751921
96 1 0.0 2.564963920015045 14.534795546751921
97 1 0.0 1.7099759466766966 15.389783520090269
98 1 0.8549879733383483 2.564963920015045 15.389783520090269
99 1 0.8549879733383483 1.7099759466766966 16.24477149342862
100 1 0.0 2.564963920015045 16.24477149342862
101 1 0.0 1.7099759466766966 17.099759466766965
102 1 0.8549879733383483 2.564963920015045 17.099759466766965
103 1 0.8549879733383483 1.7099759466766966 17.954747440105315
104 1 0.0 2.564963920015045 17.954747440105315
105 1 0.0 1.7099759466766966 18.80973541344366
106 1 0.8549879733383483 2.564963920015045 18.80973541344366
107 1 0.8549879733383483 1.7099759466766966 19.66472338678201
108 1 0.0 2.564963920015045 19.66472338678201
109 1 0.0 1.7099759466766966 20.51971136012036
110 1 0.8549879733383483 2.564963920015045 20.51971136012036
111 1 0.8549879733383483 1.7099759466766966 21.37469933345871
112 1 0.0 2.564963920015045 21.37469933345871
113 1 0.0 1.7099759466766966 22.229687306797057
114 1 0.8549879733383483 2.564963920015045 22.229687306797057
115 1 0.8549879733383483 1.7099759466766966 23.084675280135407
116 1 0.0 2.564963920015045 23.084675280135407
117 1 0.0 1.7099759466766966 23.939663253473753
118 1 0.8549879733383483 2.564963920015045 23.939663253473753
119 1 0.8549879733383483 1.7099759466766966 24.794651226812103
120 1 0.0 2.564963920015045 24.794651226812103
121 1 0.0 3.4199518933533932 0.0
122 1 0.8549879733383483 4.274939866691741 0.0
123 1 0.8549879733383483 3.4199518933533932 0.8549879733383483
124 1 0.0 4.274939866691741 0.8549879733383483
125 1 0.0 3.4199518933533932 1.7099759466766966
126 1 0.8549879733383483 4.274939866691741 1.7099759466766966
127 1 0.8549879733383483 3.4199518933533932 2.564963920015045
128 1 0.0 4.274939866691741 2.564963920015045
129 1 0.0 3.4199518933533932 3.4199518933533932
130 1 0.8549879733383483 4.274939866691741 3.4199518933533932
131 1 0.8549879733383483 3.4199518933533932 4.274939866691741
132 1 0.0 4.274939866691741 4.274939866691741
133 1 0.0 3.4199518933533932 5.12992784003009
134 1 0.8549879733383483 4.274939866691741 5.12992784003009
135 1 0.8549879733383483 3.4199518933533932 5.984915813368438
136 1 0.0 4.274939866691741 5.984915813368438
137 1 0.0 3.4199518933533932 6.8399037867067864
138 1 0.8549879733383483 4.274939866691741 6.8399037867067864
139 1 0.8549879733383483 3.4199518933533932 7.6948917600451345
140 1 0.0 4.274939866691741 7.6948917600451345
141 1 0.0 3.4199518933533932 8.549879733383483
142 1 0.8549879733383483 4.274939866691741 8.549879733383483
143 1 0.8549879733383483 3.4199518933533932 9.40486770672183
144 1 0.0 4.274939866691741 9.40486770672183
145 1 0.0 3.4199518933533932 10.25985568006018
146 1 0.8549879733383483 4.274939866691741 10.25985568006018
147 1 0.8549879733383483 3.4199518933533932 11.114843653398529
148 1 0.0 4.274939866691741 11.114843653398529
149 1 0.0 3.4199518933533932 11.969831626736877
150 1 0.8549879733383483 4.274939866691741 11.969831626736877
151 1 0.8549879733383483 3.4199518933533932 12.824819600075225
152 1 0.0 4.274939866691741 12.824819600075225
153 1 0.0 3.4199518933533932 13.679807573413573
154 1 0.8549879733383483 4.274939866691741 13.679807573413573
155 1 0.8549879733383483 3.4199518933533932 14.534795546751921
156 1 0.0 4.274939866691741 14.534795546751921
157 1 0.0 3.4199518933533932 15.389783520090269
158 1 0.8549879733383483 4.274939866691741 15.389783520090269
159 1 0.8549879733383483 3.4199518933533932 16.24477149342862
160 1 0.0 4.274939866691741 16.24477149342862
161 1 0.0 3.4199518933533932 17.099759466766965
162 1 0.8549879733383483 4.274939866691741 17.099759466766965
163 1 0.8549879733383483 3.4199518933533932 17.954747440105315
164 1 0.0 4.274939866691741 17.954747440105315
165 1 0.0 3.4199518933533932 18.80973541344366
166 1 0.8549879733383483 4.274939866691741 18.80973541344366
167 1 0.8549879733383483 3.4199518933533932 19.66472338678201
168 1 0.0 4.274939866691741 19.66472338678201
169 1 0.0 3.4199518933533932 20.51971136012036
170 1 0.8549879733383483 4.274939866691741 20.51971136012036
171 1 0.8549879733383483 3.4199518933533932 21.37469933345871
172 1 0.0 4.274939866691741 21.37469933345871
173 1 0.0 3.4199518933533932 22.229687306797057
174 1 0.8549879733383483 4.274939866691741 22.229687306797057
175 1 0.8549879733383483 3.4199518933533932 23.084675280135407
176 1 0.0 4.274939866691741 23.084675280135407
177 1 0.0 3.4199518933533932 23.939663253473753
178 1 0.8549879733383483 4.274939866691741 23.939663253473753
179 1 0.8549879733383483 3.4199518933533932 24.794651226812103
180 1 0.0 4.274939866691741 24.794651226812103
181 1 0.0 5.12992784003009 0.0
182 1 0.8549879733383483 5.984915813368438 0.0
183 1 0.8549879733383483 5.12992784003009 0.8549879733383483
184 1 0.0 5.984915813368438 0.8549879733383483
185 1 0.0 5.12992784003009 1.7099759466766966
186 1 0.8549879733383483 5.984915813368438 1.7099759466766966
187 1 0.8549879733383483 5.12992784003009 2.564963920015045
188 1 0.0 5.984915813368438 2.564963920015045
189 1 0.0 5.12992784003009 3.4199518933533932
190 1 0.8549879733383483 5.984915813368438 3.4199518933533932
191 1 0.8549879733383483 5.12992784003009 4.274939866691741
192 1 0.0 5.984915813368438 4.274939866691741
193 1 0.0 5.12992784003009 5.12992784003009
194 1 0.8549879733383483 5.984915813368438 5.12992784003009
195 1 0.8549879733383483 5.12992784003009 5.984915813368438
196 1 0.0 5.984915813368438 5.984915813368438
197 1 0.0 5.12992784003009 6.8399037867067864
198 1 0.8549879733383483 5.984915813368438 6.8399037867067864
199 1 0.8549879733383483 5.12992784003009 7.6948917600451345
200 1 0.0 5.984915813368438 7.6948917600451345
201 1 0.0 5.12992784003009 8.549879733383483
202 1 0.8549879733383483 5.984915813368438 8.549879733383483
203 1 0.8549879733383483 5.12992784003009 9.40486770672183
204 1 0.0 5.984915813368438 9.40486770672183
205 1 0.0 5.12992784003009 10.25985568006018
206 1 0.8549879733383483 5.984915813368438 10.25985568006018
207 1 0.8549879733383483 5.12992784003009 11.114843653398529
208 1 0.0 5.984915813368438 11.114843653398529
209 1 0.0 5.12992784003009 11.969831626736877
210 1 0.8549879733383483 5.984915813368438 11.969831626736877
211 1 0.8549879733383483 5.12992784003009 12.824819600075225
212 1 0.0 5.984915813368438 12.824819600075225
213 1 0.0 5.12992784003009 13.679807573413573
214 1 0.8549879733383483 5.984915813368438 13.679807573413573
215 1 0.8549879733383483 5.12992784003009 14.534795546751921
216 1 0.0 5.984915813368438 14.534795546751921
217 1 0.0 5.12992784003009 15.389783520090269
218 1 0.8549879733383483 5.984915813368438 15.389783520090269
219 1 0.8549879733383483 5.12992784003009 16.24477149342862
220 1 0.0 5.984915813368438 16.24477149342862
221 1 0.0 5.12992784003009 17.099759466766965
222 1 0.8549879733383483 5.984915813368438 17.099759466766965
223 1 0.8549879733383483 5.12992784003009 17.954747440105315
224 1 0.0 5.984915813368438 17.954747440105315
225 1 0.0 5.12992784003009 18.80973541344366
226 1 0.8549879733383483 5.984915813368438 18.80973541344366
227 1 0.8549879733383483 5.12992784003009 19.66472338678201
228 1 0.0 5.984915813368438 19.66472338678201
229 1 0.0 5.12992784003009 20.51971136012036
230 1 0.8549879733383483 5.984915813368438 20.51971136012036
231 1 0.8549879733383483 5.12992784003009 21.37469933345871
232 1 0.0 5.984915813368438 21.37469933345871
233 1 0.0 5.12992784003009 22.229687306797057
234 1 0.8549879733383483 5.984915813368438 22.229687306797057
235 1 0.8549879733383483 5.12992784003009 23.084675280135407
236 1 0.0 5.984915813368438 23.084675280135407
237 1 0.0 5.12992784003009 23.939663253473753
238 1 0.8549879733383483 5.984915813368438 23.939663253473753
239 1 0.8549879733383483 5.12992784003009 24.794651226812103
240 1 0.0 5.984915813368438 24.794651226812103
241 1 0.0 6.8399037867067864 0.0
242 1 0.8549879733383483 7.6948917600451345 0.0
243 1 0.8549879733383483 6.8399037867067864 0.8549879733383483
244 1 0.0 7.6948917600451345 0.8549879733383483
245 1 0.0 6.8399037867067864 1.7099759466766966
246 1 0.8549879733383483 7.6948917600451345 1.7099759466766966
247 1 0.8549879733383483 6.8399037867067864 2.564963920015045
248 1 0.0 7.6948917600451345 2.564963920015045
249 1 0.0 6.8399037867067864 3.4199518933533932
250 1 0.8549879733383483 7.6948917600451345 3.4199518933533932
251 1 0.8549879733383483 6.8399037867067864 4.274939866691741
252 1 0.0 7.6948917600451345 4.274939866691741
253 1 0.0 6.8399037867067864 5.12992784003009
254 1 0.8549879733383483 7.6948917600451345 5.12992784003009
255 1 0.8549879733383483 6.8399037867067864 5.984915813368438
256 1 0.0 7.6948917600451345 5.984915813368438
257 1 0.0 6.8399037867067864 6.8399037867067864
258 1 0.8549879733383483 7.6948917600451345 6.8399037867067864
259 1 0.8549879733383483 6.8399037867067864 7.6948917600451345
260 1 0.0 7.6948917600451345 7.6948917600451345
261 1 0.0 6.8399037867067864 8.549879733383483
262 1 0.8549879733383483 7.6948917600451345 8.549879733383483
263 1 0.8549879733383483 6.8399037867067864 9.40486770672183
264 1 0.0 7.6948917600451345 9.40486770672183
265 1 0.0 6.8399037867067864 10.25985568006018
266 1 0.8549879733383483 7.6948917600451345 10.25985568006018
267 1 0.8549879733383483 6.8399037867067864 11.114843653398529
268 1 0.0 7.6948917600451345 11.114843653398529
269 1 0.0 6.8399037867067864 11.969831626736877
270 1 0.8549879733383483 7.6948917600451345 11.969831626736877
271 1 0.8549879733383483 6.8399037867067864 12.824819600075225
272 1 0.0 7.6948917600451345 12.824819600075225
273 1 0.0 6.8399037867067864 13.679807573413573
274 1 0.8549879733383483 7.6948917600451345 13.679807573413573
275 1 0.8549879733383483 6.8399037867067864 14.534795546751921
276 1 0.0 7.6948917600451345 14.534795546751921
277 1 0.0 6.8399037867067864 15.389783520090269
278 1 0.8549879733383483 7.6948917600451345 15.389783520090269
279 1 0.8549879733383483 6.8399037867067864 16.24477149342862
280 1 0.0 7.6948917600451345 16.24477149342862
281 1 0.0 6.8399037867067864 17.099759466766965
282 1 0.8549879733383483 7.6948917600451345 17.099759466766965
283 1 0.8549879733383483 6.8399037867067864 17.954747440105315
284 1 0.0 7.6948917600451345 17.954747440105315
285 1 0.0 6.8399037867067864 18.80973541344366
286 1 0.8549879733383483 7.6948917600451345 18.80973541344366
287 1 0.8549879733383483 6.8399037867067864 19.66472338678201
288 1 0.0 7.6948917600451345 19.66472338678201
289 1 0.0 6.8399037867067864 20.51971136012036
290 1 0.8549879733383483 7.6948917600451345 20.51971136012036
291 1 0.8549879733383483 6.8399037867067864 21.37469933345871
292 1 0.0 7.6948917600451345 21.37469933345871
293 1 0.0 6.8399037867067864 22.229687306797057
294 1 0.8549879733383483 7.6948917600451345 22.229687306797057
295 1 0.8549879733383483 6.8399037867067864 23.084675280135407
296 1 0.0 7.6948917600451345 23.084675280135407
297 1 0.0 6.8399037867067864 23.939663253473753
298 1 0.8549879733383483 7.6948917600451345 23.939663253473753
299 1 0.8549879733383483 6.8399037867067864 24.794651226812103
300 1 0.0 7.6948917600451345 24.794651226812103
301 1 0.0 8.549879733383483 0.0
302 1 0.8549879733383483 9.40486770672183 0.0
303 1 0.8549879733383483 8.549879733383483 0.8549879733383483
304 1 0.0 9.40486770672183 0.8549879733383483
305 1 0.0 8.549879733383483 1.7099759466766966
306 1 0.8549879733383483 9.40486770672183 1.7099759466766966
307 1 0.8549879733383483 8.549879733383483 2.564963920015045
308 1 0.0 9.40486770672183 2.564963920015045
309 1 0.0 8.549879733383483 3.4199518933533932
310 1 0.8549879733383483 9.40486770672183 3.4199518933533932
311 1 0.8549879733383483 8.549879733383483 4.274939866691741
312 1 0.0 9.40486770672183 4.274939866691741
313 1 0.0 8.549879733383483 5.12992784003009
314 1 0.8549879733383483 9.40486770672183 5.12992784003009
315 1 0.8549879733383483 8.549879733383483 5.984915813368438
316 1 0.0 9.40486770672183 5.984915813368438
317 1 0.0 8.549879733383483 6.8399037867067864
318 1 0.8549879733383483 9.40486770672183 6.8399037867067864
319 1 0.8549879733383483 8.549879733383483 7.6948917600451345
320 1 0.0 9.40486770672183 7.6948917600451345
321 1 0.0 8.549879733383483 8.549879733383483
322 1 0.8549879733383483 9.40486770672183 8.549879733383483
323 1 0.8549879733383483 8.549879733383483 9.40486770672183
324 1 0.0 9.40486770672183 9.40486770672183
325 1 0.0 8.549879733383483 10.25985568006018
326 1 0.8549879733383483 9.40486770672183 10.25985568006018
327 1 0.8549879733383483 8.549879733383483 11.114843653398529
328 1 0.0 9.40486770672183 11.114843653398529
329 1 0.0 8.549879733383483 11.969831626736877
330 1 0.8549879733383483 9.40486770672183 11.969831626736877
331 1 0.8549879733383483 8.549879733383483 12.824819600075225
332 1 0.0 9.40486770672183 12.824819600075225
333 1 0.0 8.549879733383483 13.679807573413573
334 1 0.8549879733383483 9.40486770672183 13.679807573413573
335 1 0.8549879733383483 8.549879733383483 14.534795546751921
336 1 0.0 9.40486770672183 14.534795546751921
337 1 0.0 8.549879733383483 15.389783520090269
338 1 0.8549879733383483 9.40486770672183 15.389783520090269
339 1 0.8549879733383483 8.549879733383483 16.24477149342862
340 1 0.0 9.40486770672183 16.24477149342862
341 1 0.0 8.549879733383483 17.099759466766965
342 1 0.8549879733383483 9.40486770672183 17.099759466766965
343 1 0.8549879733383483 8.549879733383483 17.954747440105315
344 1 0.0 9.40486770672183 17.954747440105315
345 1 0.0 8.549879733383483 18.80973541344366
346 1 0.8549879733383483 9.40486770672183 18.80973541344366
347 1 0.8549879733383483 8.549879733383483 19.66472338678201
348 1 0.0 9.40486770672183 19.66472338678201
349 1 0.0 8.549879733383483 20.51971136012036
350 1 0.8549879733383483 9.40486770672183 20.51971136012036
351 1 0.8549879733383483 8.549879733383483 21.37469933345871
352 1 0.0 9.40486770672183 21.37469933345871
353 1 0.0 8.549879733383483 22.229687306797057
354 1 0.8549879733383483 9.40486770672183 22.229687306797057
355 1 0.8549879733383483 8.549879733383483 23.084675280135407
356 1 0.0 9.40486770672183 23.084675280135407
357 1 0.0 8.549879733383483 23.939663253473753
358 1 0.8549879733383483 9.40486770672183 23.939663253473753
359 1 0.8549879733383483 8.549879733383483 24.794651226812103
360 1 0.0 9.40486770672183 24.794651226812103
361 1 0.0 10.25985568006018 0.0
362 1 0.8549879733383483 11.114843653398529 0.0
363 1 0.8549879733383483 10.25985568006018 0.8549879733383483
364 1 0.0 11.114843653398529 0.8549879733383483
365 1 0.0 10.25985568006018 1.7099759466766966
366 1 0.8549879733383483 11.114843653398529 1.7099759466766966
367 1 0.8549879733383483 10.25985568006018 2.564963920015045
368 1 0.0 11.114843653398529 2.564963920015045
369 1 0.0 10.25985568006018 3.4199518933533932
370 1 0.8549879733383483 11.114843653398529 3.4199518933533932
371 1 0.8549879733383483 10.25985568006018 4.274939866691741
372 1 0.0 11.114843653398529 4.274939866691741
373 1 0.0 10.25985568006018 5.12992784003009
374 1 0.8549879733383483 11.114843653398529 5.12992784003009
375 1 0.8549879733383483 10.25985568006018 5.984915813368438
376 1 0.0 11.114843653398529 5.984915813368438
377 1 0.0 10.25985568006018 6.8399037867067864
378 1 0.8549879733383483 11.114843653398529 6.8399037867067864
379 1 0.8549879733383483 10.25985568006018 7.6948917600451345
380 1 0.0 11.114843653398529 7.6948917600451345
381 1 0.0 10.25985568006018 8.549879733383483
382 1 0.8549879733383483 11.114843653398529 8.549879733383483
383 1 0.8549879733383483 10.25985568006018 9.40486770672183
384 1 0.0 11.114843653398529 9.40486770672183
385 1 0.0 10.25985568006018 10.25985568006018
386 1 0.8549879733383483 11.114843653398529 10.25985568006018
387 1 0.8549879733383483 10.25985568006018 11.114843653398529
388 1 0.0 11.114843653398529 11.114843653398529
389 1 0.0 10.25985568006018 11.969831626736877
390 1 0.8549879733383483 11.114843653398529 11.969831626736877
391 1 0.8549879733383483 10.25985568006018 12.824819600075225
392 1 0.0 11.114843653398529 12.824819600075225
393 1 0.0 10.25985568006018 13.679807573413573
394 1 0.8549879733383483 11.114843653398529 13.679807573413573
395 1 0.8549879733383483 10.25985568006018 14.534795546751921
396 1 0.0 11.114843653398529 14.534795546751921
397 1 0.0 10.25985568006018 15.389783520090269
398 1 0.8549879733383483 11.114843653398529 15.389783520090269
399 1 0.8549879733383483 10.25985568006018 16.24477149342862
400 1 0.0 11.114843653398529 16.24477149342862
401 1 0.0 10.25985568006018 17.099759466766965
402 1 0.8549879733383483 11.114843653398529 17.099759466766965
403 1 0.8549879733383483 10.25985568006018 17.954747440105315
404 1 0.0 11.114843653398529 17.954747440105315
405 1 0.0 10.25985568006018 18.80973541344366
406 1 0.8549879733383483 11.114843653398529 18.80973541344366
407 1 0.8549879733383483 10.25985568006018 19.66472338678201
408 1 0.0 11.114843653398529 19.66472338678201
409 1 0.0 10.25985568006018 20.51971136012036
410 1 0.8549879733383483 11.114843653398529 20.51971136012036
411 1 0.8549879733383483 10.25985568006018 21.37469933345871
412 1 0.0 11.114843653398529 21.37469933345871
413 1 0.0 10.25985568006018 22.229687306797057
414 1 0.8549879733383483 11.114843653398529 22.229687306797057
415 1 0.8549879733383483 10.25985568006018 23.084675280135407
416 1 0.0 11.114843653398529 23.084675280135407
417 1 0.0 10.25985568006018 23.939663253473753
418 1 0.8549879733383483 11.114843653398529 23.939663253473753
419 1 0.8549879733383483 10.25985568006018 24.794651226812103
420 1 0.0 11.114843653398529 24.794651226812103
421 1 0.0 11.969831626736877 0.0
422 1 0.8549879733383483 12.824819600075225 0.0
423 1 0.8549879733383483 11.969831626736877 0.8549879733383483
424 1 0.0 12.824819600075225 0.8549879733383483
425 1 0.0 11.969831626736877 1.7099759466766966
426 1 0.8549879733383483 12.824819600075225 1.7099759466766966
427 1 0.8549879733383483 11.969831626736877 2.564963920015045
428 1 0.0 12.824819600075225 2.564963920015045
429 1 0.0 11.969831626736877 3.4199518933533932
430 1 0.8549879733383483 12.824819600075225 3.4199518933533932
431 1 0.8549879733383483 11.969831626736877 4.274939866691741
432 1 0.0 12.824819600075225 4.274939866691741
433 1 0.0 11.969831626736877 5.12992784003009
434 1 0.8549879733383483 12.824819600075225 5.12992784003009
435 1 0.8549879733383483 11.969831626736877 5.984915813368438
436 1 0.0 12.824819600075225 5.984915813368438
437 1 0.0 11.969831626736877 6.8399037867067864
438 1 0.8549879733383483 12.824819600075225 6.8399037867067864
439 1 0.8549879733383483 11.969831626736877 7.6948917600451345
440 1 0.0 12.824819600075225 7.6948917600451345
441 1 0.0 11.969831626736877 8.549879733383483
442 1 0.8549879733383483 12.824819600075225 8.549879733383483
443 1 0.8549879733383483 11.969831626736877 9.40486770672183
444 1 0.0 12.824819600075225 9.40486770672183
445 1 0.0 11.969831626736877 10.25985568006018
446 1 0.8549879733383483 12.824819600075225 10.25985568006018
447 1 0.8549879733383483 11.969831626736877 11.114843653398529
448 1 0.0 12.824819600075225 11.114843653398529
449 1 0.0 11.969831626736877 11.969831626736877
450 1 0.8549879733383483 12.824819600075225 11.969831626736877
451 1 0.8549879733383483 11.969831626736877 12.824819600075225
452 1 0.0 12.824819600075225 12.824819600075225
453 1 0.0 11.969831626736877 13.679807573413573
454 1 0.8549879733383483 12.824819600075225 13.679807573413573
455 1 0.8549879733383483 11.969831626736877 14.534795546751921
456 1 0.0 12.824819600075225 14.534795546751921
457 1 0.0 11.969831626736877 15.389783520090269
458 1 0.8549879733383483 12.824819600075225 15.389783520090269
459 1 0.8549879733383483 11.969831626736877 16.24477149342862
460 1 0.0 12.824819600075225 16.24477149342862
461 1 0.0 11.969831626736877 17.099759466766965
462 1 0.8549879733383483 12.824819600075225 17.099759466766965
463 1 0.8549879733383483 11.969831626736877 17.954747440105315
464 1 0.0 12.824819600075225 17.954747440105315
465 1 0.0 11.969831626736877 18.80973541344366
466 1 0.8549879733383483 12.824819600075225 18.80973541344366
467 1 0.8549879733383483 11.969831626736877 19.66472338678201
468 1 0.0 12.824819600075225 19.66472338678201
469 1 0.0 11.969831626736877 20.51971136012036
470 1 0.8549879733383483 12.824819600075225 20.51971136012036
471 1 0.8549879733383483 11.969831626736877 21.37469933345871
472 1 0.0 12.824819600075225 21.37469933345871
473 1 0.0 11.969831626736877 22.229687306797057
474 1 0.8549879733383483 12.824819600075225 22.229687306797057
475 1 0.8549879733383483 11.969831626736877 23.084675280135407
476 1 0.0 12.824819600075225 23.084675280135407
477 1 0.0 11.969831626736877 23.939663253473753
478 1 0.8549879733383483 12.824819600075225 23.939663253473753
479 1 0.8549879733383483 11.969831626736877 24.794651226812103
480 1 0.0 12.824819600075225 24.794651226812103
481 1 0.0 13.679807573413573 0.0
482 1 0.8549879733383483 14.534795546751921 0.0
483 1 0.8549879733383483 13.679807573413573 0.8549879733383483
484 1 0.0 14.534795546751921 0.8549879733383483
485 1 0.0 13.679807573413573 1.7099759466766966
486 1 0.8549879733383483 14.534795546751921 1.7099759466766966
487 1 0.8549879733383483 13.679807573413573 2.564963920015045
488 1 0.0 14.534795546751921 2.564963920015045
489 1 0.0 13.679807573413573 3.4199518933533932
490 1 0.8549879733383483 14.534795546751921 3.4199518933533932
491 1 0.8549879733383483 13.679807573413573 4.274939866691741
492 1 0.0 14.534795546751921 4.274939866691741
493 1 0.0 13.679807573413573 5.12992784003009
494 1 0.8549879733383483 14.534795546751921 5.12992784003009
495 1 0.8549879733383483 13.679807573413573 5.984915813368438
496 1 0.0 14.534795546751921 5.984915813368438
497 1 0.0 13.679807573413573 6.8399037867067864
498 1 0.8549879733383483 14.534795546751921 6.8399037867067864
499 1 0.8549879733383483 13.679807573413573 7.6948917600451345
500 1 0.0 14.534795546751921 7.6948917600451345
501 1 0.0 13.679807573413573 8.549879733383483
502 1 0.8549879733383483 14.534795546751921 8.549879733383483
503 1 0.8549879733383483 13.679807573413573 9.40486770672183
504 1 0.0 14.534795546751921 9.40486770672183
505 1 0.0 13.679807573413573 10.25985568006018
506 1 0.8549879733383483 14.534795546751921 10.25985568006018
507 1 0.8549879733383483 13.679807573413573 11.114843653398529
508 1 0.0 14.534795546751921 11.114843653398529
509 1 0.0 13.679807573413573 11.969831626736877
510 1 0.8549879733383483 14.534795546751921 11.969831626736877
511 1 0.8549879733383483 13.679807573413573 12.824819600075225
512 1 0.0 14.534795546751921 12.824819600075225
513 1 0.0 13.679807573413573 13.679807573413573
514 1 0.8549879733383483 14.534795546751921 13.679807573413573
515 1 0.8549879733383483 13.679807573413573 14.534795546751921
516 1 0.0 14.534795546751921 14.534795546751921
517 1 0.0 13.679807573413573 15.389783520090269
518 1 0.8549879733383483 14.534795546751921 15.389783520090269
519 1 0.8549879733383483 13.679807573413573 16.24477149342862
520 1 0.0 14.534795546751921 16.24477149342862
521 1 0.0 13.679807573413573 17.099759466766965
522 1 0.8549879733383483 14.534795546751921 17.099759466766965
523 1 0.8549879733383483 13.679807573413573 17.954747440105315
524 1 0.0 14.534795546751921 17.954747440105315
525 1 0.0 13.679807573413573 18.80973541344366
526 1 0.8549879733383483 14.534795546751921 18.80973541344366
527 1 0.8549879733383483 13.679807573413573 19.66472338678201
528 1 0.0 14.534795546751921 19.66472338678201
529 1 0.0 13.679807573413573 20.51971136012036
530 1 0.8549879733383483 14.534795546751921 20.51971136012036
531 1 0.8549879733383483 13.679807573413573 21.37469933345871
532 1 0.0 14.534795546751921 21.37469933345871
533 1 0.0 13.679807573413573 22.229687306797057
534 1 0.8549879733383483 14.534795546751921 22.229687306797057
535 1 0.8549879733383483 13.679807573413573 23.084675280135407
536 1 0.0 14.534795546751921 23.084675280135407
537 1 0.0 13.679807573413573 23.939663253473753
538 1 0.8549879733383483 14.534795546751921 23.939663253473753
539 1 0.8549879733383483 13.679807573413573 24.794651226812103
540 1 0.0 14.534795546751921 24.794651226812103
541 1 0.0 15.389783520090269 0.0
542 1 0.8549879733383483 16.24477149342862 0.0
543 1 0.8549879733383483 15.389783520090269 0.8549879733383483
544 1 0.0 16.24477149342862 0.8549879733383483
545 1 0.0 15.389783520090269 1.7099759466766966
546 1 0.8549879733383483 16.24477149342862 1.7099759466766966
547 1 0.8549879733383483 15.389783520090269 2.564963920015045
548 1 0.0 16.24477149342862 2.564963920015045
549 1 0.0 15.389783520090269 3.4199518933533932
550 1 0.8549879733383483 16.24477149342862 3.4199518933533932
551 1 0.8549879733383483 15.389783520090269 4.274939866691741
552 1 0.0 16.24477149342862 4.274939866691741
553 1 0.0 15.389783520090269 5.12992784003009
554 1 0.8549879733383483 16.24477149342862 5.12992784003009
555 1 0.8549879733383483 15.389783520090269 5.984915813368438
556 1 0.0 16.24477149342862 5.984915813368438
557 1 0.0 15.389783520090269 6.8399037867067864
558 1 0.8549879733383483 16.24477149342862 6.8399037867067864
559 1 0.8549879733383483 15.389783520090269 7.6948917600451345
560 1 0.0 16.24477149342862 7.6948917600451345
561 1 0.0 15.389783520090269 8.549879733383483
562 1 0.8549879733383483 16.24477149342862 8.549879733383483
563 1 0.8549879733383483 15.389783520090269 9.40486770672183