Position Data

5832 atoms
1 atom types

0.0 79.99999999999999 xlo xhi
0.0 39.99999999999999 ylo yhi
0.0 39.99999999999999 zlo zhi

Atoms

1 1 0.0 0.0 0.0
2 1 2.222222222222222 2.222222222222222 0.0
3 1 2.222222222222222 0.0 2.222222222222222
4 1 0.0 2.222222222222222 2.222222222222222
5 1 0.0 0.0 4.444444444444444
6 1 2.222222222222222 2.222222222222222 4.444444444444444
7 1 2.222222222222222 0.0 6.666666666666666
8 1 0.0 2.222222222222222 6.666666666666666
9 1 0.0 0.0 8.888888888888888
10 1 2.222222222222222 2.222222222222222 8.888888888888888
11 1 2.222222222222222 0.0 11.111111111111109
12 1 0.0 2.222222222222222 11.111111111111109
13 1 0.0 0.0 13.333333333333332
14 1 2.222222222222222 2.222222222222222 13.333333333333332
15 1 2.222222222222222 0.0 15.555555555555554
16 1 0.0 2.222222222222222 15.555555555555554
17 1 0.0 0.0 17.777777777777775
18 1 2.222222222222222 2.222222222222222 17.777777777777775
19 1 2.222222222222222 0.0 19.999999999999996
20 1 0.0 2.222222222222222 19.999999999999996
21 1 0.0 0.0 22.222222222222218
22 1 2.222222222222222 2.222222222222222 22.222222222222218
23 1 2.222222222222222 0.0 24.44444444444444
24 1 0.0 2.222222222222222 24.44444444444444
25 1 0.0 0.0 26.666666666666664
26 1 2.222222222222222 2.222222222222222 26.666666666666664
27 1 2.222222222222222 0.0 28.888888888888886
28 1 0.0 2.222222222222222 28.888888888888886
29 1 0.0 0.0 31.111111111111107
30 1 2.222222222222222 2.222222222222222 31.111111111111107
31 1 2.222222222222222 0.0 33.33333333333333
32 1 0.0 2.222222222222222 33.33333333333333
33 1 0.0 0.0 35.55555555555555
34 1 2.222222222222222 2.222222222222222 35.55555555555555
35 1 2.222222222222222 0.0 37.77777777777777
36 1 0.0 2.222222222222222 37.77777777777777
37 1 0.0 4.444444444444444 0.0
38 1 2.222222222222222 6.666666666666666 0.0
39 1 2.222222222222222 4.444444444444444 2.222222222222222
40 1 0.0 6.666666666666666 2.222222222222222
41 1 0.0 4.444444444444444 4.444444444444444
42 1 2.222222222222222 6.666666666666666 4.444444444444444
43 1 2.222222222222222 4.444444444444444 6.666666666666666
44 1 0.0 6.666666666666666 6.666666666666666
45 1 0.0 4.444444444444444 8.888888888888888
46 1 2.222222222222222 6.666666666666666 8.888888888888888
47 1 2.222222222222222 4.444444444444444 11.111111111111109
48 1 0.0 6.666666666666666 11.111111111111109
49 1 0.0 4.444444444444444 13.333333333333332
50 1 2.222222222222222 6.666666666666666 13.333333333333332
51 1 2.222222222222222 4.444444444444444 15.555555555555554
52 1 0.0 6.666666666666666 15.555555555555554
53 1 0.0 4.444444444444444 17.777777777777775
54 1 2.222222222222222 6.666666666666666 17.777777777777775
55 1 2.222222222222222 4.444444444444444 19.999999999999996
56 1 0.0 6.666666666666666 19.999999999999996
57 1 0.0 4.444444444444444 22.222222222222218
58 1 2.222222222222222 6.666666666666666 22.222222222222218
59 1 2.222222222222222 4.444444444444444 24.44444444444444
60 1 0.0 6.666666666666666 24.44444444444444
61 1 0.0 4.444444444444444 26.666666666666664
62 1 2.222222222222222 6.666666666666666 26.666666666666664
63 1 2.222222222222222 4.444444444444444 28.888888888888886
64 1 0.0 6.666666666666666 28.888888888888886
65 1 0.0 4.444444444444444 31.111111111111107
66 1 2.222222222222222 6.666666666666666 31.111111111111107
67 1 2.222222222222222 4.444444444444444 33.33333333333333
68 1 0.0 6.666666666666666 33.33333333333333
69 1 0.0 4.444444444444444 35.55555555555555
70 1 2.222222222222222 6.666666666666666 35.55555555555555
71 1 2.222222222222222 4.444444444444444 37.77777777777777
72 1 0.0 6.666666666666666 37.77777777777777
73 1 0.0 8.888888888888888 0.0
74 1 2.222222222222222 11.111111111111109 0.0
75 1 2.222222222222222 8.888888888888888 2.222222222222222
76 1 0.0 11.111111111111109 2.222222222222222
77 1 0.0 8.888888888888888 4.444444444444444
78 1 2.222222222222222 11.111111111111109 4.444444444444444
79 1 2.222222222222222 8.888888888888888 6.666666666666666
80 1 0.0 11.111111111111109 6.666666666666666
81 1 0.0 8.888888888888888 8.888888888888888
82 1 2.222222222222222 11.111111111111109 8.888888888888888
83 1 2.222222222222222 8.888888888888888 11.111111111111109
84 1 0.0 11.111111111111109 11.111111111111109
85 1 0.0 8.888888888888888 13.333333333333332
86 1 2.222222222222222 11.111111111111109 13.333333333333332
87 1 2.222222222222222 8.888888888888888 15.555555555555554
88 1 0.0 11.111111111111109 15.555555555555554
89 1 0.0 8.888888888888888 17.777777777777775
90 1 2.222222222222222 11.111111111111109 17.777777777777775
91 1 2.222222222222222 8.888888888888888 19.999999999999996
92 1 0.0 11.111111111111109 19.999999999999996
93 1 0.0 8.888888888888888 22.222222222222218
94 1 2.222222222222222 11.111111111111109 22.222222222222218
95 1 2.222222222222222 8.888888888888888 24.44444444444444
96 1 0.0 11.111111111111109 24.44444444444444
97 1 0.0 8.888888888888888 26.666666666666664
98 1 2.222222222222222 11.111111111111109 26.666666666666664
99 1 2.222222222222222 8.888888888888888 28.888888888888886
100 1 0.0 11.111111111111109 28.888888888888886
101 1 0.0 8.888888888888888 31.111111111111107
102 1 2.222222222222222 11.111111111111109 31.111111111111107
103 1 2.222222222222222 8.888888888888888 33.33333333333333
104 1 0.0 11.111111111111109 33.33333333333333
105 1 0.0 8.888888888888888 35.55555555555555
106 1 2.222222222222222 11.111111111111109 35.55555555555555
107 1 2.222222222222222 8.888888888888888 37.77777777777777
108 1 0.0 11.111111111111109 37.77777777777777
109 1 0.0 13.333333333333332 0.0
110 1 2.222222222222222 15.555555555555554 0.0
111 1 2.222222222222222 13.333333333333332 2.222222222222222
112 1 0.0 15.555555555555554 2.222222222222222
113 1 0.0 13.333333333333332 4.444444444444444
114 1 2.222222222222222 15.555555555555554 4.444444444444444
115 1 2.222222222222222 13.333333333333332 6.666666666666666
116 1 0.0 15.555555555555554 6.666666666666666
117 1 0.0 13.333333333333332 8.888888888888888
118 1 2.222222222222222 15.555555555555554 8.888888888888888
119 1 2.222222222222222 13.333333333333332 11.111111111111109
120 1 0.0 15.555555555555554 11.111111111111109
121 1 0.0 13.333333333333332 13.333333333333332
122 1 2.222222222222222 15.555555555555554 13.333333333333332
123 1 2.222222222222222 13.333333333333332 15.555555555555554
124 1 0.0 15.555555555555554 15.555555555555554
125 1 0.0 13.333333333333332 17.777777777777775
126 1 2.222222222222222 15.555555555555554 17.777777777777775
127 1 2.222222222222222 13.333333333333332 19.999999999999996
128 1 0.0 15.555555555555554 19.999999999999996
129 1 0.0 13.333333333333332 22.222222222222218
130 1 2.222222222222222 15.555555555555554 22.222222222222218
131 1 2.222222222222222 13.333333333333332 24.44444444444444
132 1 0.0 15.555555555555554 24.44444444444444
133 1 0.0 13.333333333333332 26.666666666666664
134 1 2.222222222222222 15.555555555555554 26.666666666666664
135 1 2.222222222222222 13.333333333333332 28.888888888888886
136 1 0.0 15.555555555555554 28.888888888888886
137 1 0.0 13.333333333333332 31.111111111111107
138 1 2.222222222222222 15.555555555555554 31.111111111111107
139 1 2.222222222222222 13.333333333333332 33.33333333333333
140 1 0.0 15.555555555555554 33.33333333333333
141 1 0.0 13.333333333333332 35.55555555555555
142 1 2.222222222222222 15.555555555555554 35.55555555555555
143 1 2.222222222222222 13.333333333333332 37.77777777777777
144 1 0.0 15.555555555555554 37.77777777777777
145 1 0.0 17.777777777777775 0.0
146 1 2.222222222222222 19.999999999999996 0.0
147 1 2.222222222222222 17.777777777777775 2.222222222222222
148 1 0.0 19.999999999999996 2.222222222222222
149 1 0.0 17.777777777777775 4.444444444444444
150 1 2.222222222222222 19.999999999999996 4.444444444444444
151 1 2.222222222222222 17.777777777777775 6.666666666666666
152 1 0.0 19.999999999999996 6.666666666666666
153 1 0.0 17.777777777777775 8.888888888888888
154 1 2.222222222222222 19.999999999999996 8.888888888888888
155 1 2.222222222222222 17.777777777777775 11.111111111111109
156 1 0.0 19.999999999999996 11.111111111111109
157 1 0.0 17.777777777777775 13.333333333333332
158 1 2.222222222222222 19.999999999999996 13.333333333333332
159 1 2.222222222222222 17.777777777777775 15.555555555555554
160 1 0.0 19.999999999999996 15.555555555555554
161 1 0.0 17.777777777777775 17.777777777777775
162 1 2.222222222222222 19.999999999999996 17.777777777777775
163 1 2.222222222222222 17.777777777777775 19.999999999999996
164 1 0.0 19.999999999999996 19.999999999999996
165 1 0.0 17.777777777777775 22.222222222222218
166 1 2.222222222222222 19.999999999999996 22.222222222222218
167 1 2.222222222222222 17.777777777777775 24.44444444444444
168 1 0.0 19.999999999999996 24.44444444444444
169 1 0.0 17.777777777777775 26.666666666666664
170 1 2.222222222222222 19.999999999999996 26.666666666666664
171 1 2.222222222222222 17.777777777777775 28.888888888888886
172 1 0.0 19.999999999999996 28.888888888888886
173 1 0.0 17.777777777777775 31.111111111111107
174 1 2.222222222222222 19.999999999999996 31.111111111111107
175 1 2.222222222222222 17.777777777777775 33.33333333333333
176 1 0.0 19.999999999999996 33.33333333333333
177 1 0.0 17.777777777777775 35.55555555555555
178 1 2.222222222222222 19.999999999999996 35.55555555555555
179 1 2.222222222222222 17.777777777777775 37.77777777777777
180 1 0.0 19.999999999999996 37.77777777777777
181 1 0.0 22.222222222222218 0.0
182 1 2.222222222222222 24.44444444444444 0.0
183 1 2.222222222222222 22.222222222222218 2.222222222222222
184 1 0.0 24.44444444444444 2.222222222222222
185 1 0.0 22.222222222222218 4.444444444444444
186 1 2.222222222222222 24.44444444444444 4.444444444444444
187 1 2.222222222222222 22.222222222222218 6.666666666666666
188 1 0.0 24.44444444444444 6.666666666666666
189 1 0.0 22.222222222222218 8.888888888888888
190 1 2.222222222222222 24.44444444444444 8.888888888888888
191 1 2.222222222222222 22.222222222222218 11.111111111111109
192 1 0.0 24.44444444444444 11.111111111111109
193 1 0.0 22.222222222222218 13.333333333333332
194 1 2.222222222222222 24.44444444444444 13.333333333333332
195 1 2.222222222222222 22.222222222222218 15.555555555555554
196 1 0.0 24.44444444444444 15.555555555555554
197 1 0.0 22.222222222222218 17.777777777777775
198 1 2.222222222222222 24.44444444444444 17.777777777777775
199 1 2.222222222222222 22.222222222222218 19.999999999999996
200 1 0.0 24.44444444444444 19.999999999999996
201 1 0.0 22.222222222222218 22.222222222222218
202 1 2.222222222222222 24.44444444444444 22.222222222222218
203 1 2.222222222222222 22.222222222222218 24.44444444444444
204 1 0.0 24.44444444444444 24.44444444444444
205 1 0.0 22.222222222222218 26.666666666666664
206 1 2.222222222222222 24.44444444444444 26.666666666666664
207 1 2.222222222222222 22.222222222222218 28.888888888888886
208 1 0.0 24.44444444444444 28.888888888888886
209 1 0.0 22.222222222222218 31.111111111111107
210 1 2.222222222222222 24.44444444444444 31.111111111111107
211 1 2.222222222222222 22.222222222222218 33.33333333333333
212 1 0.0 24.44444444444444 33.33333333333333
213 1 0.0 22.222222222222218 35.55555555555555
214 1 2.222222222222222 24.44444444444444 35.55555555555555
215 1 2.222222222222222 22.222222222222218 37.77777777777777
216 1 0.0 24.44444444444444 37.77777777777777
217 1 0.0 26.666666666666664 0.0
218 1 2.222222222222222 28.888888888888886 0.0
219 1 2.222222222222222 26.666666666666664 2.222222222222222
220 1 0.0 28.888888888888886 2.222222222222222
221 1 0.0 26.666666666666664 4.444444444444444
222 1 2.222222222222222 28.888888888888886 4.444444444444444
223 1 2.222222222222222 26.666666666666664 6.666666666666666
224 1 0.0 28.888888888888886 6.666666666666666
225 1 0.0 26.666666666666664 8.888888888888888
226 1 2.222222222222222 28.888888888888886 8.888888888888888
227 1 2.222222222222222 26.666666666666664 11.111111111111109
228 1 0.0 28.888888888888886 11.111111111111109
229 1 0.0 26.666666666666664 13.333333333333332
230 1 2.222222222222222 28.888888888888886 13.333333333333332
231 1 2.222222222222222 26.666666666666664 15.555555555555554
232 1 0.0 28.888888888888886 15.555555555555554
233 1 0.0 26.666666666666664 17.777777777777775
234 1 2.222222222222222 28.888888888888886 17.777777777777775
235 1 2.222222222222222 26.666666666666664 19.999999999999996
236 1 0.0 28.888888888888886 19.999999999999996
237 1 0.0 26.666666666666664 22.222222222222218
238 1 2.222222222222222 28.888888888888886 22.222222222222218
239 1 2.222222222222222 26.666666666666664 24.44444444444444
240 1 0.0 28.888888888888886 24.44444444444444
241 1 0.0 26.666666666666664 26.666666666666664
242 1 2.222222222222222 28.888888888888886 26.666666666666664
243 1 2.222222222222222 26.666666666666664 28.888888888888886
244 1 0.0 28.888888888888886 28.888888888888886
245 1 0.0 26.666666666666664 31.111111111111107
246 1 2.222222222222222 28.888888888888886 31.111111111111107
247 1 2.222222222222222 26.666666666666664 33.33333333333333
248 1 0.0 28.888888888888886 33.33333333333333
249 1 0.0 26.666666666666664 35.55555555555555
250 1 2.222222222222222 28.888888888888886 35.55555555555555
251 1 2.222222222222222 26.666666666666664 37.77777777777777
252 1 0.0 28.888888888888886 37.77777777777777
253 1 0.0 31.111111111111107 0.0
254 1 2.222222222222222 33.33333333333333 0.0
255 1 2.222222222222222 31.111111111111107 2.222222222222222
256 1 0.0 33.33333333333333 2.222222222222222
257 1 0.0 31.111111111111107 4.444444444444444
258 1 2.222222222222222 33.33333333333333 4.444444444444444
259 1 2.222222222222222 31.111111111111107 6.666666666666666
260 1 0.0 33.33333333333333 6.666666666666666
261 1 0.0 31.111111111111107 8.888888888888888
262 1 2.222222222222222 33.33333333333333 8.888888888888888
263 1 2.222222222222222 31.111111111111107 11.111111111111109
264 1 0.0 33.33333333333333 11.111111111111109
265 1 0.0 31.111111111111107 13.333333333333332
266 1 2.222222222222222 33.33333333333333 13.333333333333332
267 1 2.222222222222222 31.111111111111107 15.555555555555554
268 1 0.0 33.33333333333333 15.555555555555554
269 1 0.0 31.111111111111107 17.777777777777775
270 1 2.222222222222222 33.33333333333333 17.777777777777775
271 1 2.222222222222222 31.111111111111107 19.999999999999996
272 1 0.0 33.33333333333333 19.999999999999996
273 1 0.0 31.111111111111107 22.222222222222218
274 1 2.222222222222222 33.33333333333333 22.222222222222218
275 1 2.222222222222222 31.111111111111107 24.44444444444444
276 1 0.0 33.33333333333333 24.44444444444444
277 1 0.0 31.111111111111107 26.666666666666664
278 1 2.222222222222222 33.33333333333333 26.666666666666664
279 1 2.222222222222222 31.111111111111107 28.888888888888886
280 1 0.0 33.33333333333333 28.888888888888886
281 1 0.0 31.111111111111107 31.111111111111107
282 1 2.222222222222222 33.33333333333333 31.111111111111107
283 1 2.222222222222222 31.111111111111107 33.33333333333333
284 1 0.0 33.33333333333333 33.33333333333333
285 1 0.0 31.111111111111107 35.55555555555555
286 1 2.222222222222222 33.33333333333333 35.55555555555555
287 1 2.222222222222222 31.111111111111107 37.77777777777777
288 1 0.0 33.33333333333333 37.77777777777777
289 1 0.0 35.55555555555555 0.0
290 1 2.222222222222222 37.77777777777777 0.0
291 1 2.222222222222222 35.55555555555555 2.222222222222222
292 1 0.0 37.77777777777777 2.222222222222222
293 1 0.0 35.55555555555555 4.444444444444444
294 1 2.222222222222222 37.77777777777777 4.444444444444444
295 1 2.222222222222222 35.55555555555555 6.666666666666666
296 1 0.0 37.77777777777777 6.666666666666666
297 1 0.0 35.55555555555555 8.888888888888888
298 1 2.222222222222222 37.77777777777777 8.888888888888888
299 1 2.222222222222222 35.55555555555555 11.111111111111109
300 1 0.0 37.77777777777777 11.111111111111109
301 1 0.0 35.55555555555555 13.333333333333332
302 1 2.222222222222222 37.77777777777777 13.333333333333332
303 1 2.222222222222222 35.55555555555555 15.555555555555554
304 1 0.0 37.77777777777777 15.555555555555554
305 1 0.0 35.55555555555555 17.777777777777775
306 1 2.222222222222222 37.77777777777777 17.777777777777775
307 1 2.222222222222222 35.55555555555555 19.999999999999996
308 1 0.0 37.77777777777777 19.999999999999996
309 1 0.0 35.55555555555555 22.222222222222218
310 1 2.222222222222222 37.77777777777777 22.222222222222218
311 1 2.222222222222222 35.55555555555555 24.44444444444444
312 1 0.0 37.77777777777777 24.44444444444444
313 1 0.0 35.55555555555555 26.666666666666664
314 1 2.222222222222222 37.77777777777777 26.666666666666664
315 1 2.222222222222222 35.55555555555555 28.888888888888886
316 1 0.0 37.77777777777777 28.888888888888886
317 1 0.0 35.55555555555555 31.111111111111107
318 1 2.222222222222222 37.77777777777777 31.111111111111107
319 1 2.222222222222222 35.55555555555555 33.33333333333333
320 1 0.0 37.77777777777777 33.33333333333333
321 1 0.0 35.55555555555555 35.55555555555555
322 1 2.222222222222222 37.77777777777777 35.55555555555555
323 1 2.222222222222222 35.55555555555555 37.77777777777777
324 1 0.0 37.77777777777777 37.77777777777777
325 1 4.444444444444444 0.0 0.0
326 1 6.666666666666666 2.222222222222222 0.0
327 1 6.666666666666666 0.0 2.222222222222222
328 1 4.444444444444444 2.222222222222222 2.222222222222222
329 1 4.444444444444444 0.0 4.444444444444444
330 1 6.666666666666666 2.222222222222222 4.444444444444444
331 1 6.666666666666666 0.0 6.666666666666666
332 1 4.444444444444444 2.222222222222222 6.666666666666666
333 1 4.444444444444444 0.0 8.888888888888888
334 1 6.666666666666666 2.222222222222222 8.888888888888888
335 1 6.666666666666666 0.0 11.111111111111109
336 1 4.444444444444444 2.222222222222222 11.111111111111109
337 1 4.444444444444444 0.0 13.333333333333332
338 1 6.666666666666666 2.222222222222222 13.333333333333332
339 1 6.666666666666666 0.0 15.555555555555554
340 1 4.444444444444444 2.222222222222222 15.555555555555554
341 1 4.444444444444444 0.0 17.777777777777775
342 1 6.666666666666666 2.222222222222222 17.777777777777775
343 1 6.666666666666666 0.0 19.999999999999996
344 1 4.444444444444444 2.222222222222222 19.999999999999996
345 1 4.444444444444444 0.0 22.222222222222218
346 1 6.666666666666666 2.222222222222222 22.222222222222218
347 1 6.666666666666666 0.0 24.44444444444444
348 1 4.444444444444444 2.222222222222222 24.44444444444444
349 1 4.444444444444444 0.0 26.666666666666664
350 1 6.666666666666666 2.222222222222222 26.666666666666664
351 1 6.666666666666666 0.0 28.888888888888886
352 1 4.444444444444444 2.222222222222222 28.888888888888886
353 1 4.444444444444444 0.0 31.111111111111107
354 1 6.666666666666666 2.222222222222222 31.111111111111107
355 1 6.666666666666666 0.0 33.33333333333333
356 1 4.444444444444444 2.222222222222222 33.33333333333333
357 1 4.444444444444444 0.0 35.55555555555555
358 1 6.666666666666666 2.222222222222222 35.55555555555555
359 1 6.666666666666666 0.0 37.77777777777777
360 1 4.444444444444444 2.222222222222222 37.77777777777777
361 1 4.444444444444444 4.444444444444444 0.0
362 1 6.666666666666666 6.666666666666666 0.0
363 1 6.666666666666666 4.444444444444444 2.222222222222222
364 1 4.444444444444444 6.666666666666666 2.222222222222222
365 1 4.444444444444444 4.444444444444444 4.444444444444444
366 1 6.666666666666666 6.666666666666666 4.444444444444444
367 1 6.666666666666666 4.444444444444444 6.666666666666666
368 1 4.444444444444444 6.666666666666666 6.666666666666666
369 1 4.444444444444444 4.444444444444444 8.888888888888888
370 1 6.666666666666666 6.666666666666666 8.888888888888888
371 1 6.666666666666666 4.444444444444444 11.111111111111109
372 1 4.444444444444444 6.666666666666666 11.111111111111109
373 1 4.444444444444444 4.444444444444444 13.333333333333332
374 1 6.666666666666666 6.666666666666666 13.333333333333332
375 1 6.666666666666666 4.444444444444444 15.555555555555554
376 1 4.444444444444444 6.666666666666666 15.555555555555554
377 1 4.444444444444444 4.444444444444444 17.777777777777775
378 1 6.666666666666666 6.666666666666666 17.777777777777775
379 1 6.666666666666666 4.444444444444444 19.999999999999996
380 1 4.444444444444444 6.666666666666666 19.999999999999996
381 1 4.444444444444444 4.444444444444444 22.222222222222218
382 1 6.666666666666666 6.666666666666666 22.222222222222218
383 1 6.666666666666666 4.444444444444444 24.44444444444444
384 1 4.444444444444444 6.666666666666666 24.44444444444444
385 1 4.444444444444444 4.444444444444444 26.666666666666664
386 1 6.666666666666666 6.666666666666666 26.666666666666664
387 1 6.666666666666666 4.444444444444444 28.888888888888886
388 1 4.444444444444444 6.666666666666666 28.888888888888886
389 1 4.444444444444444 4.444444444444444 31.111111111111107
390 1 6.666666666666666 6.666666666666666 31.111111111111107
391 1 6.666666666666666 4.444444444444444 33.33333333333333
392 1 4.444444444444444 6.666666666666666 33.33333333333333
393 1 4.444444444444444 4.444444444444444 35.55555555555555
394 1 6.666666666666666 6.666666666666666 35.55555555555555
395 1 6.666666666666666 4.444444444444444 37.77777777777777
396 1 4.444444444444444 6.666666666666666 37.77777777777777
397 1 4.444444444444444 8.888888888888888 0.0
398 1 6.666666666666666 11.111111111111109 0.0
399 1 6.666666666666666 8.888888888888888 2.222222222222222
400 1 4.444444444444444 11.111111111111109 2.222222222222222
401 1 4.444444444444444 8.888888888888888 4.444444444444444
402 1 6.666666666666666 11.111111111111109 4.444444444444444
403 1 6.666666666666666 8.888888888888888 6.666666666666666
404 1 4.444444444444444 11.111111111111109 6.666666666666666
405 1 4.444444444444444 8.888888888888888 8.888888888888888
406 1 6.666666666666666 11.111111111111109 8.888888888888888
407 1 6.666666666666666 8.888888888888888 11.111111111111109
408 1 4.444444444444444 11.111111111111109 11.111111111111109
409 1 4.444444444444444 8.888888888888888 13.333333333333332
410 1 6.666666666666666 11.111111111111109 13.333333333333332
411 1 6.666666666666666 8.888888888888888 15.555555555555554
412 1 4.444444444444444 11.111111111111109 15.555555555555554
413 1 4.444444444444444 8.888888888888888 17.777777777777775
414 1 6.666666666666666 11.111111111111109 17.777777777777775
415 1 6.666666666666666 8.888888888888888 19.999999999999996
416 1 4.444444444444444 11.111111111111109 19.999999999999996
417 1 4.444444444444444 8.888888888888888 22.222222222222218
418 1 6.666666666666666 11.111111111111109 22.222222222222218
419 1 6.666666666666666 8.888888888888888 24.44444444444444
420 1 4.444444444444444 11.111111111111109 24.44444444444444
421 1 4.444444444444444 8.888888888888888 26.666666666666664
422 1 6.666666666666666 11.111111111111109 26.666666666666664
423 1 6.666666666666666 8.888888888888888 28.888888888888886
424 1 4.444444444444444 11.111111111111109 28.888888888888886
425 1 4.444444444444444 8.888888888888888 31.111111111111107
426 1 6.666666666666666 11.111111111111109 31.111111111111107
427 1 6.666666666666666 8.888888888888888 33.33333333333333
428 1 4.444444444444444 11.111111111111109 33.33333333333333
429 1 4.444444444444444 8.888888888888888 35.55555555555555
430 1 6.666666666666666 11.111111111111109 35.55555555555555
431 1 6.666666666666666 8.888888888888888 37.77777777777777
432 1 4.444444444444444 11.111111111111109 37.77777777777777
433 1 4.444444444444444 13.333333333333332 0.0
434 1 6.666666666666666 15.555555555555554 0.0
435 1 6.666666666666666 13.333333333333332 2.222222222222222
436 1 4.444444444444444 15.555555555555554 2.222222222222222
437 1 4.444444444444444 13.333333333333332 4.444444444444444
438 1 6.666666666666666 15.555555555555554 4.444444444444444
439 1 6.666666666666666 13.333333333333332 6.666666666666666
440 1 4.444444444444444 15.555555555555554 6.666666666666666
441 1 4.444444444444444 13.333333333333332 8.888888888888888
442 1 6.666666666666666 15.555555555555554 8.888888888888888
443 1 6.666666666666666 13.333333333333332 11.111111111111109
444 1 4.444444444444444 15.555555555555554 11.111111111111109
445 1 4.444444444444444 13.333333333333332 13.333333333333332
446 1 6.666666666666666 15.555555555555554 13.333333333333332
447 1 6.666666666666666 13.333333333333332 15.555555555555554
448 1 4.444444444444444 15.555555555555554 15.555555555555554
449 1 4.444444444444444 13.333333333333332 17.777777777777775
450 1 6.666666666666666 15.555555555555554 17.777777777777775
451 1 6.666666666666666 13.333333333333332 19.999999999999996
452 1 4.444444444444444 15.555555555555554 19.999999999999996
453 1 4.444444444444444 13.333333333333332 22.222222222222218
454 1 6.666666666666666 15.555555555555554 22.222222222222218
455 1 6.666666666666666 13.333333333333332 24.44444444444444
456 1 4.444444444444444 15.555555555555554 24.44444444444444
457 1 4.444444444444444 13.333333333333332 26.666666666666664
458 1 6.666666666666666 15.555555555555554 26.666666666666664
459 1 6.666666666666666 13.333333333333332 28.888888888888886
460 1 4.444444444444444 15.555555555555554 28.888888888888886
461 1 4.444444444444444 13.333333333333332 31.111111111111107
462 1 6.666666666666666 15.555555555555554 31.111111111111107
463 1 6.666666666666666 13.333333333333332 33.33333333333333
464 1 4.444444444444444 15.555555555555554 33.33333333333333
465 1 4.444444444444444 13.333333333333332 35.55555555555555
466 1 6.666666666666666 15.555555555555554 35.55555555555555
467 1 6.666666666666666 13.333333333333332 37.77777777777777
468 1 4.444444444444444 15.555555555555554 37.77777777777777
469 1 4.444444444444444 17.777777777777775 0.0
470 1 6.666666666666666 19.999999999999996 0.0
471 1 6.666666666666666 17.777777777777775 2.222222222222222
472 1 4.444444444444444 19.999999999999996 2.222222222222222
473 1 4.444444444444444 17.777777777777775 4.444444444444444
474 1 6.666666666666666 19.999999999999996 4.444444444444444
475 1 6.666666666666666 17.777777777777775 6.666666666666666
476 1 4.444444444444444 19.999999999999996 6.666666666666666
477 1 4.444444444444444 17.777777777777775 8.888888888888888
478 1 6.666666666666666 19.999999999999996 8.888888888888888
479 1 6.666666666666666 17.777777777777775 11.111111111111109
480 1 4.444444444444444 19.999999999999996 11.111111111111109
481 1 4.444444444444444 17.777777777777775 13.333333333333332
482 1 6.666666666666666 19.999999999999996 13.333333333333332
483 1 6.666666666666666 17.777777777777775 15.555555555555554
484 1 4.444444444444444 19.999999999999996 15.555555555555554
485 1 4.444444444444444 17.777777777777775 17.777777777777775
486 1 6.666666666666666 19.999999999999996 17.777777777777775
487 1 6.666666666666666 17.777777777777775 19.999999999999996
488 1 4.444444444444444 19.999999999999996 19.999999999999996
489 1 4.444444444444444 17.777777777777775 22.222222222222218
490 1 6.666666666666666 19.999999999999996 22.222222222222218
491 1 6.666666666666666 17.777777777777775 24.44444444444444
492 1 4.444444444444444 19.999999999999996 24.44444444444444
493 1 4.444444444444444 17.777777777777775 26.666666666666664
494 1 6.666666666666666 19.999999999999996 26.666666666666664
495 1 6.666666666666666 17.777777777777775 28.888888888888886
496 1 4.444444444444444 19.999999999999996 28.888888888888886
497 1 4.444444444444444 17.777777777777775 31.111111111111107
498 1 6.666666666666666 19.999999999999996 31.111111111111107
499 1 6.666666666666666 17.777777777777775 33.33333333333333
500 1 4.444444444444444 19.999999999999996 33.33333333333333
501 1 4.444444444444444 17.777777777777775 35.55555555555555
502 1 6.666666666666666 19.999999999999996 35.55555555555555
503 1 6.666666666666666 17.777777777777775 37.77777777777777
504 1 4.444444444444444 19.999999999999996 37.77777777777777
505 1 4.444444444444444 22.222222222222218 0.0
506 1 6.666666666666666 24.44444444444444 0.0
507 1 6.666666666666666 22.222222222222218 2.222222222222222
508 1 4.444444444444444 24.44444444444444 2.222222222222222
509 1 4.444444444444444 22.222222222222218 4.444444444444444
510 1 6.666666666666666 24.44444444444444 4.444444444444444
511 1 6.666666666666666 22.222222222222218 6.666666666666666
512 1 4.444444444444444 24.44444444444444 6.666666666666666
513 1 4.444444444444444 22.222222222222218 8.888888888888888
514 1 6.666666666666666 24.44444444444444 8.888888888888888
515 1 6.666666666666666 22.222222222222218 11.111111111111109
516 1 4.444444444444444 24.44444444444444 11.111111111111109
517 1 4.444444444444444 22.222222222222218 13.333333333333332
518 1 6.666666666666666 24.44444444444444 13.333333333333332
519 1 6.666666666666666 22.222222222222218 15.555555555555554
520 1 4.444444444444444 24.44444444444444 15.555555555555554
521 1 4.444444444444444 22.222222222222218 17.777777777777775
522 1 6.666666666666666 24.44444444444444 17.777777777777775
523 1 6.666666666666666 22.222222222222218 19.999999999999996
524 1 4.444444444444444 24.44444444444444 19.999999999999996
525 1 4.444444444444444 22.222222222222218 22.222222222222218
526 1 6.666666666666666 24.44444444444444 22.222222222222218
527 1 6.666666666666666 22.222222222222218 24.44444444444444
528 1 4.444444444444444 24.44444444444444 24.44444444444444
529 1 4.444444444444444 22.222222222222218 26.666666666666664
530 1 6.666666666666666 24.44444444444444 26.666666666666664
531 1 6.666666666666666 22.222222222222218 28.888888888888886
532 1 4.444444444444444 24.44444444444444 28.888888888888886
533 1 4.444444444444444 22.222222222222218 31.111111111111107
534 1 6.666666666666666 24.44444444444444 31.111111111111107
535 1 6.666666666666666 22.222222222222218 33.33333333333333
536 1 4.444444444444444 24.44444444444444 33.33333333333333
537 1 4.444444444444444 22.222222222222218 35.55555555555555
538 1 6.666666666666666 24.44444444444444 35.55555555555555
539 1 6.666666666666666 22.222222222222218 37.77777777777777
540 1 4.444444444444444 24.44444444444444 37.77777777777777
541 1 4.444444444444444 26.666666666666664 0.0
542 1 6.666666666666666 28.888888888888886 0.0
543 1 6.666666666666666 26.666666666666664 2.222222222222222
544 1 4.444444444444444 28.888888888888886 2.222222222222222