Position Data

4000 atoms
1 atom types

0.0 34.19951893353394 xlo xhi
0.0 17.09975946676697 ylo yhi
0.0 17.09975946676697 zlo zhi

Atoms

1 1 0.0 0.0 0.0
2 1 0.8549879733383484 0.8549879733383484 0.0
3 1 0.8549879733383484 0.0 0.8549879733383484
4 1 0.0 0.8549879733383484 0.8549879733383484
5 1 0.0 0.0 1.7099759466766968
6 1 0.8549879733383484 0.8549879733383484 1.7099759466766968
7 1 0.8549879733383484 0.0 2.564963920015045
8 1 0.0 0.8549879733383484 2.564963920015045
9 1 0.0 0.0 3.4199518933533937
10 1 0.8549879733383484 0.8549879733383484 3.4199518933533937
11 1 0.8549879733383484 0.0 4.274939866691742
12 1 0.0 0.8549879733383484 4.274939866691742
13 1 0.0 0.0 5.12992784003009
14 1 0.8549879733383484 0.8549879733383484 5.12992784003009
15 1 0.8549879733383484 0.0 5.984915813368438
16 1 0.0 0.8549879733383484 5.984915813368438
17 1 0.0 0.0 6.839903786706787
18 1 0.8549879733383484 0.8549879733383484 6.839903786706787
19 1 0.8549879733383484 0.0 7.694891760045135
20 1 0.0 0.8549879733383484 7.694891760045135
21 1 0.0 0.0 8.549879733383484
22 1 0.8549879733383484 0.8549879733383484 8.549879733383484
23 1 0.8549879733383484 0.0 9.404867706721832
24 1 0.0 0.8549879733383484 9.404867706721832
25 1 0.0 0.0 10.25985568006018
26 1 0.8549879733383484 0.8549879733383484 10.25985568006018
27 1 0.8549879733383484 0.0 11.114843653398529
28 1 0.0 0.8549879733383484 11.114843653398529
29 1 0.0 0.0 11.969831626736879
30 1 0.8549879733383484 0.8549879733383484 11.969831626736879
31 1 0.8549879733383484 0.0 12.824819600075227
32 1 0.0 0.8549879733383484 12.824819600075227
33 1 0.0 0.0 13.679807573413575
34 1 0.8549879733383484 0.8549879733383484 13.679807573413575
35 1 0.8549879733383484 0.0 14.534795546751923
36 1 0.0 0.8549879733383484 14.534795546751923
37 1 0.0 0.0 15.38978352009027
38 1 0.8549879733383484 0.8549879733383484 15.38978352009027
39 1 0.8549879733383484 0.0 16.24477149342862
40 1 0.0 0.8549879733383484 16.24477149342862
41 1 0.0 1.7099759466766968 0.0
42 1 0.8549879733383484 2.564963920015045 0.0
43 1 0.8549879733383484 1.7099759466766968 0.8549879733383484
44 1 0.0 2.564963920015045 0.8549879733383484
45 1 0.0 1.7099759466766968 1.7099759466766968
46 1 0.8549879733383484 2.564963920015045 1.7099759466766968
47 1 0.8549879733383484 1.7099759466766968 2.564963920015045
48 1 0.0 2.564963920015045 2.564963920015045
49 1 0.0 1.7099759466766968 3.4199518933533937
50 1 0.8549879733383484 2.564963920015045 3.4199518933533937
51 1 0.8549879733383484 1.7099759466766968 4.274939866691742
52 1 0.0 2.564963920015045 4.274939866691742
53 1 0.0 1.7099759466766968 5.12992784003009
54 1 0.8549879733383484 2.564963920015045 5.12992784003009
55 1 0.8549879733383484 1.7099759466766968 5.984915813368438
56 1 0.0 2.564963920015045 5.984915813368438
57 1 0.0 1.7099759466766968 6.839903786706787
58 1 0.8549879733383484 2.564963920015045 6.839903786706787
59 1 0.8549879733383484 1.7099759466766968 7.694891760045135
60 1 0.0 2.564963920015045 7.694891760045135
61 1 0.0 1.7099759466766968 8.549879733383484
62 1 0.8549879733383484 2.564963920015045 8.549879733383484
63 1 0.8549879733383484 1.7099759466766968 9.404867706721832
64 1 0.0 2.564963920015045 9.404867706721832
65 1 0.0 1.7099759466766968 10.25985568006018
66 1 0.8549879733383484 2.564963920015045 10.25985568006018
67 1 0.8549879733383484 1.7099759466766968 11.114843653398529
68 1 0.0 2.564963920015045 11.114843653398529
69 1 0.0 1.7099759466766968 11.969831626736879
70 1 0.8549879733383484 2.564963920015045 11.969831626736879
71 1 0.8549879733383484 1.7099759466766968 12.824819600075227
72 1 0.0 2.564963920015045 12.824819600075227
73 1 0.0 1.7099759466766968 13.679807573413575
74 1 0.8549879733383484 2.564963920015045 13.679807573413575
75 1 0.8549879733383484 1.7099759466766968 14.534795546751923
76 1 0.0 2.564963920015045 14.534795546751923
77 1 0.0 1.7099759466766968 15.38978352009027
78 1 0.8549879733383484 2.564963920015045 15.38978352009027
79 1 0.8549879733383484 1.7099759466766968 16.24477149342862
80 1 0.0 2.564963920015045 16.24477149342862
81 1 0.0 3.4199518933533937 0.0
82 1 0.8549879733383484 4.274939866691742 0.0
83 1 0.8549879733383484 3.4199518933533937 0.8549879733383484
84 1 0.0 4.274939866691742 0.8549879733383484
85 1 0.0 3.4199518933533937 1.7099759466766968
86 1 0.8549879733383484 4.274939866691742 1.7099759466766968
87 1 0.8549879733383484 3.4199518933533937 2.564963920015045
88 1 0.0 4.274939866691742 2.564963920015045
89 1 0.0 3.4199518933533937 3.4199518933533937
90 1 0.8549879733383484 4.274939866691742 3.4199518933533937
91 1 0.8549879733383484 3.4199518933533937 4.274939866691742
92 1 0.0 4.274939866691742 4.274939866691742
93 1 0.0 3.4199518933533937 5.12992784003009
94 1 0.8549879733383484 4.274939866691742 5.12992784003009
95 1 0.8549879733383484 3.4199518933533937 5.984915813368438
96 1 0.0 4.274939866691742 5.984915813368438
97 1 0.0 3.4199518933533937 6.839903786706787
98 1 0.8549879733383484 4.274939866691742 6.839903786706787
99 1 0.8549879733383484 3.4199518933533937 7.694891760045135
100 1 0.0 4.274939866691742 7.694891760045135
101 1 0.0 3.4199518933533937 8.549879733383484
102 1 0.8549879733383484 4.274939866691742 8.549879733383484
103 1 0.8549879733383484 3.4199518933533937 9.404867706721832
104 1 0.0 4.274939866691742 9.404867706721832
105 1 0.0 3.4199518933533937 10.25985568006018
106 1 0.8549879733383484 4.274939866691742 10.25985568006018
107 1 0.8549879733383484 3.4199518933533937 11.114843653398529
108 1 0.0 4.274939866691742 11.114843653398529
109 1 0.0 3.4199518933533937 11.969831626736879
110 1 0.8549879733383484 4.274939866691742 11.969831626736879
111 1 0.8549879733383484 3.4199518933533937 12.824819600075227
112 1 0.0 4.274939866691742 12.824819600075227
113 1 0.0 3.4199518933533937 13.679807573413575
114 1 0.8549879733383484 4.274939866691742 13.679807573413575
115 1 0.8549879733383484 3.4199518933533937 14.534795546751923
116 1 0.0 4.274939866691742 14.534795546751923
117 1 0.0 3.4199518933533937 15.38978352009027
118 1 0.8549879733383484 4.274939866691742 15.38978352009027
119 1 0.8549879733383484 3.4199518933533937 16.24477149342862
120 1 0.0 4.274939866691742 16.24477149342862
121 1 0.0 5.12992784003009 0.0
122 1 0.8549879733383484 5.984915813368438 0.0
123 1 0.8549879733383484 5.12992784003009 0.8549879733383484
124 1 0.0 5.984915813368438 0.8549879733383484
125 1 0.0 5.12992784003009 1.7099759466766968
126 1 0.8549879733383484 5.984915813368438 1.7099759466766968
127 1 0.8549879733383484 5.12992784003009 2.564963920015045
128 1 0.0 5.984915813368438 2.564963920015045
129 1 0.0 5.12992784003009 3.4199518933533937
130 1 0.8549879733383484 5.984915813368438 3.4199518933533937
131 1 0.8549879733383484 5.12992784003009 4.274939866691742
132 1 0.0 5.984915813368438 4.274939866691742
133 1 0.0 5.12992784003009 5.12992784003009
134 1 0.8549879733383484 5.984915813368438 5.12992784003009
135 1 0.8549879733383484 5.12992784003009 5.984915813368438
136 1 0.0 5.984915813368438 5.984915813368438
137 1 0.0 5.12992784003009 6.839903786706787
138 1 0.8549879733383484 5.984915813368438 6.839903786706787
139 1 0.8549879733383484 5.12992784003009 7.694891760045135
140 1 0.0 5.984915813368438 7.694891760045135
141 1 0.0 5.12992784003009 8.549879733383484
142 1 0.8549879733383484 5.984915813368438 8.549879733383484
143 1 0.8549879733383484 5.12992784003009 9.404867706721832
144 1 0.0 5.984915813368438 9.404867706721832
145 1 0.0 5.12992784003009 10.25985568006018
146 1 0.8549879733383484 5.984915813368438 10.25985568006018
147 1 0.8549879733383484 5.12992784003009 11.114843653398529
148 1 0.0 5.984915813368438 11.114843653398529
149 1 0.0 5.12992784003009 11.969831626736879
150 1 0.8549879733383484 5.984915813368438 11.969831626736879
151 1 0.8549879733383484 5.12992784003009 12.824819600075227
152 1 0.0 5.984915813368438 12.824819600075227
153 1 0.0 5.12992784003009 13.679807573413575
154 1 0.8549879733383484 5.984915813368438 13.679807573413575
155 1 0.8549879733383484 5.12992784003009 14.534795546751923
156 1 0.0 5.984915813368438 14.534795546751923
157 1 0.0 5.12992784003009 15.38978352009027
158 1 0.8549879733383484 5.984915813368438 15.38978352009027
159 1 0.8549879733383484 5.12992784003009 16.24477149342862
160 1 0.0 5.984915813368438 16.24477149342862
161 1 0.0 6.839903786706787 0.0
162 1 0.8549879733383484 7.694891760045135 0.0
163 1 0.8549879733383484 6.839903786706787 0.8549879733383484
164 1 0.0 7.694891760045135 0.8549879733383484
165 1 0.0 6.839903786706787 1.7099759466766968
166 1 0.8549879733383484 7.694891760045135 1.7099759466766968
167 1 0.8549879733383484 6.839903786706787 2.564963920015045
168 1 0.0 7.694891760045135 2.564963920015045
169 1 0.0 6.839903786706787 3.4199518933533937
170 1 0.8549879733383484 7.694891760045135 3.4199518933533937
171 1 0.8549879733383484 6.839903786706787 4.274939866691742
172 1 0.0 7.694891760045135 4.274939866691742
173 1 0.0 6.839903786706787 5.12992784003009
174 1 0.8549879733383484 7.694891760045135 5.12992784003009
175 1 0.8549879733383484 6.839903786706787 5.984915813368438
176 1 0.0 7.694891760045135 5.984915813368438
177 1 0.0 6.839903786706787 6.839903786706787
178 1 0.8549879733383484 7.694891760045135 6.839903786706787
179 1 0.8549879733383484 6.839903786706787 7.694891760045135
180 1 0.0 7.694891760045135 7.694891760045135
181 1 0.0 6.839903786706787 8.549879733383484
182 1 0.8549879733383484 7.694891760045135 8.549879733383484
183 1 0.8549879733383484 6.839903786706787 9.404867706721832
184 1 0.0 7.694891760045135 9.404867706721832
185 1 0.0 6.839903786706787 10.25985568006018
186 1 0.8549879733383484 7.694891760045135 10.25985568006018
187 1 0.8549879733383484 6.839903786706787 11.114843653398529
188 1 0.0 7.694891760045135 11.114843653398529
189 1 0.0 6.839903786706787 11.969831626736879
190 1 0.8549879733383484 7.694891760045135 11.969831626736879
191 1 0.8549879733383484 6.839903786706787 12.824819600075227
192 1 0.0 7.694891760045135 12.824819600075227
193 1 0.0 6.839903786706787 13.679807573413575
194 1 0.8549879733383484 7.694891760045135 13.679807573413575
195 1 0.8549879733383484 6.839903786706787 14.534795546751923
196 1 0.0 7.694891760045135 14.534795546751923
197 1 0.0 6.839903786706787 15.38978352009027
198 1 0.8549879733383484 7.694891760045135 15.38978352009027
199 1 0.8549879733383484 6.839903786706787 16.24477149342862
200 1 0.0 7.694891760045135 16.24477149342862
201 1 0.0 8.549879733383484 0.0
202 1 0.8549879733383484 9.404867706721832 0.0
203 1 0.8549879733383484 8.549879733383484 0.8549879733383484
204 1 0.0 9.404867706721832 0.8549879733383484
205 1 0.0 8.549879733383484 1.7099759466766968
206 1 0.8549879733383484 9.404867706721832 1.7099759466766968
207 1 0.8549879733383484 8.549879733383484 2.564963920015045
208 1 0.0 9.404867706721832 2.564963920015045
209 1 0.0 8.549879733383484 3.4199518933533937
210 1 0.8549879733383484 9.404867706721832 3.4199518933533937
211 1 0.8549879733383484 8.549879733383484 4.274939866691742
212 1 0.0 9.404867706721832 4.274939866691742
213 1 0.0 8.549879733383484 5.12992784003009
214 1 0.8549879733383484 9.404867706721832 5.12992784003009
215 1 0.8549879733383484 8.549879733383484 5.984915813368438
216 1 0.0 9.404867706721832 5.984915813368438
217 1 0.0 8.549879733383484 6.839903786706787
218 1 0.8549879733383484 9.404867706721832 6.839903786706787
219 1 0.8549879733383484 8.549879733383484 7.694891760045135
220 1 0.0 9.404867706721832 7.694891760045135
221 1 0.0 8.549879733383484 8.549879733383484
222 1 0.8549879733383484 9.404867706721832 8.549879733383484
223 1 0.8549879733383484 8.549879733383484 9.404867706721832
224 1 0.0 9.404867706721832 9.404867706721832
225 1 0.0 8.549879733383484 10.25985568006018
226 1 0.8549879733383484 9.404867706721832 10.25985568006018
227 1 0.8549879733383484 8.549879733383484 11.114843653398529
228 1 0.0 9.404867706721832 11.114843653398529
229 1 0.0 8.549879733383484 11.969831626736879
230 1 0.8549879733383484 9.404867706721832 11.969831626736879
231 1 0.8549879733383484 8.549879733383484 12.824819600075227
232 1 0.0 9.404867706721832 12.824819600075227
233 1 0.0 8.549879733383484 13.679807573413575
234 1 0.8549879733383484 9.404867706721832 13.679807573413575
235 1 0.8549879733383484 8.549879733383484 14.534795546751923
236 1 0.0 9.404867706721832 14.534795546751923
237 1 0.0 8.549879733383484 15.38978352009027
238 1 0.8549879733383484 9.404867706721832 15.38978352009027
239 1 0.8549879733383484 8.549879733383484 16.24477149342862
240 1 0.0 9.404867706721832 16.24477149342862
241 1 0.0 10.25985568006018 0.0
242 1 0.8549879733383484 11.114843653398529 0.0
243 1 0.8549879733383484 10.25985568006018 0.8549879733383484
244 1 0.0 11.114843653398529 0.8549879733383484
245 1 0.0 10.25985568006018 1.7099759466766968
246 1 0.8549879733383484 11.114843653398529 1.7099759466766968
247 1 0.8549879733383484 10.25985568006018 2.564963920015045
248 1 0.0 11.114843653398529 2.564963920015045
249 1 0.0 10.25985568006018 3.4199518933533937
250 1 0.8549879733383484 11.114843653398529 3.4199518933533937
251 1 0.8549879733383484 10.25985568006018 4.274939866691742
252 1 0.0 11.114843653398529 4.274939866691742
253 1 0.0 10.25985568006018 5.12992784003009
254 1 0.8549879733383484 11.114843653398529 5.12992784003009
255 1 0.8549879733383484 10.25985568006018 5.984915813368438
256 1 0.0 11.114843653398529 5.984915813368438
257 1 0.0 10.25985568006018 6.839903786706787
258 1 0.8549879733383484 11.114843653398529 6.839903786706787
259 1 0.8549879733383484 10.25985568006018 7.694891760045135
260 1 0.0 11.114843653398529 7.694891760045135
261 1 0.0 10.25985568006018 8.549879733383484
262 1 0.8549879733383484 11.114843653398529 8.549879733383484
263 1 0.8549879733383484 10.25985568006018 9.404867706721832
264 1 0.0 11.114843653398529 9.404867706721832
265 1 0.0 10.25985568006018 10.25985568006018
266 1 0.8549879733383484 11.114843653398529 10.25985568006018
267 1 0.8549879733383484 10.25985568006018 11.114843653398529
268 1 0.0 11.114843653398529 11.114843653398529
269 1 0.0 10.25985568006018 11.969831626736879
270 1 0.8549879733383484 11.114843653398529 11.969831626736879
271 1 0.8549879733383484 10.25985568006018 12.824819600075227
272 1 0.0 11.114843653398529 12.824819600075227
273 1 0.0 10.25985568006018 13.679807573413575
274 1 0.8549879733383484 11.114843653398529 13.679807573413575
275 1 0.8549879733383484 10.25985568006018 14.534795546751923
276 1 0.0 11.114843653398529 14.534795546751923
277 1 0.0 10.25985568006018 15.38978352009027
278 1 0.8549879733383484 11.114843653398529 15.38978352009027
279 1 0.8549879733383484 10.25985568006018 16.24477149342862
280 1 0.0 11.114843653398529 16.24477149342862
281 1 0.0 11.969831626736879 0.0
282 1 0.8549879733383484 12.824819600075227 0.0
283 1 0.8549879733383484 11.969831626736879 0.8549879733383484
284 1 0.0 12.824819600075227 0.8549879733383484
285 1 0.0 11.969831626736879 1.7099759466766968
286 1 0.8549879733383484 12.824819600075227 1.7099759466766968
287 1 0.8549879733383484 11.969831626736879 2.564963920015045
288 1 0.0 12.824819600075227 2.564963920015045
289 1 0.0 11.969831626736879 3.4199518933533937
290 1 0.8549879733383484 12.824819600075227 3.4199518933533937
291 1 0.8549879733383484 11.969831626736879 4.274939866691742
292 1 0.0 12.824819600075227 4.274939866691742
293 1 0.0 11.969831626736879 5.12992784003009
294 1 0.8549879733383484 12.824819600075227 5.12992784003009
295 1 0.8549879733383484 11.969831626736879 5.984915813368438
296 1 0.0 12.824819600075227 5.984915813368438
297 1 0.0 11.969831626736879 6.839903786706787
298 1 0.8549879733383484 12.824819600075227 6.839903786706787
299 1 0.8549879733383484 11.969831626736879 7.694891760045135
300 1 0.0 12.824819600075227 7.694891760045135
301 1 0.0 11.969831626736879 8.549879733383484
302 1 0.8549879733383484 12.824819600075227 8.549879733383484
303 1 0.8549879733383484 11.969831626736879 9.404867706721832
304 1 0.0 12.824819600075227 9.404867706721832
305 1 0.0 11.969831626736879 10.25985568006018
306 1 0.8549879733383484 12.824819600075227 10.25985568006018
307 1 0.8549879733383484 11.969831626736879 11.114843653398529
308 1 0.0 12.824819600075227 11.114843653398529
309 1 0.0 11.969831626736879 11.969831626736879
310 1 0.8549879733383484 12.824819600075227 11.969831626736879
311 1 0.8549879733383484 11.969831626736879 12.824819600075227
312 1 0.0 12.824819600075227 12.824819600075227
313 1 0.0 11.969831626736879 13.679807573413575
314 1 0.8549879733383484 12.824819600075227 13.679807573413575
315 1 0.8549879733383484 11.969831626736879 14.534795546751923
316 1 0.0 12.824819600075227 14.534795546751923
317 1 0.0 11.969831626736879 15.38978352009027
318 1 0.8549879733383484 12.824819600075227 15.38978352009027
319 1 0.8549879733383484 11.969831626736879 16.24477149342862
320 1 0.0 12.824819600075227 16.24477149342862
321 1 0.0 13.679807573413575 0.0
322 1 0.8549879733383484 14.534795546751923 0.0
323 1 0.8549879733383484 13.679807573413575 0.8549879733383484
324 1 0.0 14.534795546751923 0.8549879733383484
325 1 0.0 13.679807573413575 1.7099759466766968
326 1 0.8549879733383484 14.534795546751923 1.7099759466766968
327 1 0.8549879733383484 13.679807573413575 2.564963920015045
328 1 0.0 14.534795546751923 2.564963920015045
329 1 0.0 13.679807573413575 3.4199518933533937
330 1 0.8549879733383484 14.534795546751923 3.4199518933533937
331 1 0.8549879733383484 13.679807573413575 4.274939866691742
332 1 0.0 14.534795546751923 4.274939866691742
333 1 0.0 13.679807573413575 5.12992784003009
334 1 0.8549879733383484 14.534795546751923 5.12992784003009
335 1 0.8549879733383484 13.679807573413575 5.984915813368438
336 1 0.0 14.534795546751923 5.984915813368438
337 1 0.0 13.679807573413575 6.839903786706787
338 1 0.8549879733383484 14.534795546751923 6.839903786706787
339 1 0.8549879733383484 13.679807573413575 7.694891760045135
340 1 0.0 14.534795546751923 7.694891760045135
341 1 0.0 13.679807573413575 8.549879733383484
342 1 0.8549879733383484 14.534795546751923 8.549879733383484
343 1 0.8549879733383484 13.679807573413575 9.404867706721832
344 1 0.0 14.534795546751923 9.404867706721832
345 1 0.0 13.679807573413575 10.25985568006018
346 1 0.8549879733383484 14.534795546751923 10.25985568006018
347 1 0.8549879733383484 13.679807573413575 11.114843653398529
348 1 0.0 14.534795546751923 11.114843653398529
349 1 0.0 13.679807573413575 11.969831626736879
350 1 0.8549879733383484 14.534795546751923 11.969831626736879
351 1 0.8549879733383484 13.679807573413575 12.824819600075227
352 1 0.0 14.534795546751923 12.824819600075227
353 1 0.0 13.679807573413575 13.679807573413575
354 1 0.8549879733383484 14.534795546751923 13.679807573413575
355 1 0.8549879733383484 13.679807573413575 14.534795546751923
356 1 0.0 14.534795546751923 14.534795546751923
357 1 0.0 13.679807573413575 15.38978352009027
358 1 0.8549879733383484 14.534795546751923 15.38978352009027
359 1 0.8549879733383484 13.679807573413575 16.24477149342862
360 1 0.0 14.534795546751923 16.24477149342862
361 1 0.0 15.38978352009027 0.0
362 1 0.8549879733383484 16.24477149342862 0.0
363 1 0.8549879733383484 15.38978352009027 0.8549879733383484
364 1 0.0 16.24477149342862 0.8549879733383484
365 1 0.0 15.38978352009027 1.7099759466766968
366 1 0.8549879733383484 16.24477149342862 1.7099759466766968
367 1 0.8549879733383484 15.38978352009027 2.564963920015045
368 1 0.0 16.24477149342862 2.564963920015045
369 1 0.0 15.38978352009027 3.4199518933533937
370 1 0.8549879733383484 16.24477149342862 3.4199518933533937
371 1 0.8549879733383484 15.38978352009027 4.274939866691742
372 1 0.0 16.24477149342862 4.274939866691742
373 1 0.0 15.38978352009027 5.12992784003009
374 1 0.8549879733383484 16.24477149342862 5.12992784003009
375 1 0.8549879733383484 15.38978352009027 5.984915813368438
376 1 0.0 16.24477149342862 5.984915813368438
377 1 0.0 15.38978352009027 6.839903786706787
378 1 0.8549879733383484 16.24477149342862 6.839903786706787
379 1 0.8549879733383484 15.38978352009027 7.694891760045135
380 1 0.0 16.24477149342862 7.694891760045135
381 1 0.0 15.38978352009027 8.549879733383484
382 1 0.8549879733383484 16.24477149342862 8.549879733383484
383 1 0.8549879733383484 15.38978352009027 9.404867706721832
384 1 0.0 16.24477149342862 9.404867706721832
385 1 0.0 15.38978352009027 10.25985568006018
386 1 0.8549879733383484 16.24477149342862 10.25985568006018
387 1 0.8549879733383484 15.38978352009027 11.114843653398529
388 1 0.0 16.24477149342862 11.114843653398529
389 1 0.0 15.38978352009027 11.969831626736879
390 1 0.8549879733383484 16.24477149342862 11.969831626736879
391 1 0.8549879733383484 15.38978352009027 12.824819600075227
392 1 0.0 16.24477149342862 12.824819600075227
393 1 0.0 15.38978352009027 13.679807573413575
394 1 0.8549879733383484 16.24477149342862 13.679807573413575
395 1 0.8549879733383484 15.38978352009027 14.534795546751923
396 1 0.0 16.24477149342862 14.534795546751923
397 1 0.0 15.38978352009027 15.38978352009027
398 1 0.8549879733383484 16.24477149342862 15.38978352009027
399 1 0.8549879733383484 15.38978352009027 16.24477149342862
400 1 0.0 16.24477149342862 16.24477149342862
401 1 1.7099759466766968 0.0 0.0
402 1 2.564963920015045 0.8549879733383484 0.0
403 1 2.564963920015045 0.0 0.8549879733383484
404 1 1.7099759466766968 0.8549879733383484 0.8549879733383484
405 1 1.7099759466766968 0.0 1.7099759466766968
406 1 2.564963920015045 0.8549879733383484 1.7099759466766968
407 1 2.564963920015045 0.0 2.564963920015045
408 1 1.7099759466766968 0.8549879733383484 2.564963920015045
409 1 1.7099759466766968 0.0 3.4199518933533937
410 1 2.564963920015045 0.8549879733383484 3.4199518933533937
411 1 2.564963920015045 0.0 4.274939866691742
412 1 1.7099759466766968 0.8549879733383484 4.274939866691742
413 1 1.7099759466766968 0.0 5.12992784003009
414 1 2.564963920015045 0.8549879733383484 5.12992784003009
415 1 2.564963920015045 0.0 5.984915813368438
416 1 1.7099759466766968 0.8549879733383484 5.984915813368438
417 1 1.7099759466766968 0.0 6.839903786706787
418 1 2.564963920015045 0.8549879733383484 6.839903786706787
419 1 2.564963920015045 0.0 7.694891760045135
420 1 1.7099759466766968 0.8549879733383484 7.694891760045135
421 1 1.7099759466766968 0.0 8.549879733383484
422 1 2.564963920015045 0.8549879733383484 8.549879733383484
423 1 2.564963920015045 0.0 9.404867706721832
424 1 1.7099759466766968 0.8549879733383484 9.404867706721832
425 1 1.7099759466766968 0.0 10.25985568006018
426 1 2.564963920015045 0.8549879733383484 10.25985568006018
427 1 2.564963920015045 0.0 11.114843653398529
428 1 1.7099759466766968 0.8549879733383484 11.114843653398529
429 1 1.7099759466766968 0.0 11.969831626736879
430 1 2.564963920015045 0.8549879733383484 11.969831626736879
431 1 2.564963920015045 0.0 12.824819600075227
432 1 1.7099759466766968 0.8549879733383484 12.824819600075227
433 1 1.7099759466766968 0.0 13.679807573413575
434 1 2.564963920015045 0.8549879733383484 13.679807573413575
435 1 2.564963920015045 0.0 14.534795546751923
436 1 1.7099759466766968 0.8549879733383484 14.534795546751923
437 1 1.7099759466766968 0.0 15.38978352009027
438 1 2.564963920015045 0.8549879733383484 15.38978352009027
439 1 2.564963920015045 0.0 16.24477149342862
440 1 1.7099759466766968 0.8549879733383484 16.24477149342862
441 1 1.7099759466766968 1.7099759466766968 0.0
442 1 2.564963920015045 2.564963920015045 0.0
443 1 2.564963920015045 1.7099759466766968 0.8549879733383484
444 1 1.7099759466766968 2.564963920015045 0.8549879733383484
445 1 1.7099759466766968 1.7099759466766968 1.7099759466766968
446 1 2.564963920015045 2.564963920015045 1.7099759466766968
447 1 2.564963920015045 1.7099759466766968 2.564963920015045
448 1 1.7099759466766968 2.564963920015045 2.564963920015045
449 1 1.7099759466766968 1.7099759466766968 3.4199518933533937
450 1 2.564963920015045 2.564963920015045 3.4199518933533937
451 1 2.564963920015045 1.7099759466766968 4.274939866691742
452 1 1.7099759466766968 2.564963920015045 4.274939866691742
453 1 1.7099759466766968 1.7099759466766968 5.12992784003009
454 1 2.564963920015045 2.564963920015045 5.12992784003009
455 1 2.564963920015045 1.7099759466766968 5.984915813368438
456 1 1.7099759466766968 2.564963920015045 5.984915813368438
457 1 1.7099759466766968 1.7099759466766968 6.839903786706787
458 1 2.564963920015045 2.564963920015045 6.839903786706787
459 1 2.564963920015045 1.7099759466766968 7.694891760045135
460 1 1.7099759466766968 2.564963920015045 7.694891760045135
461 1 1.7099759466766968 1.7099759466766968 8.549879733383484
462 1 2.564963920015045 2.564963920015045 8.549879733383484
463 1 2.564963920015045 1.7099759466766968 9.404867706721832
464 1 1.7099759466766968 2.564963920015045 9.404867706721832
465 1 1.7099759466766968 1.7099759466766968 10.25985568006018
466 1 2.564963920015045 2.564963920015045 10.25985568006018
467 1 2.564963920015045 1.7099759466766968 11.114843653398529
468 1 1.7099759466766968 2.564963920015045 11.114843653398529
469 1 1.7099759466766968 1.7099759466766968 11.969831626736879
470 1 2.564963920015045 2.564963920015045 11.969831626736879
471 1 2.564963920015045 1.7099759466766968 12.824819600075227
472 1 1.7099759466766968 2.564963920015045 12.824819600075227
473 1 1.7099759466766968 1.7099759466766968 13.679807573413575
474 1 2.564963920015045 2.564963920015045 13.679807573413575
475 1 2.564963920015045 1.7099759466766968 14.534795546751923
476 1 1.7099759466766968 2.564963920015045 14.534795546751923
477 1 1.7099759466766968 1.7099759466766968 15.38978352009027
478 1 2.564963920015045 2.564963920015045 15.38978352009027
479 1 2.564963920015045 1.7099759466766968 16.24477149342862
480 1 1.7099759466766968 2.564963920015045 16.24477149342862
481 1 1.7099759466766968 3.4199518933533937 0.0
482 1 2.564963920015045 4.274939866691742 0.0
483 1 2.564963920015045 3.4199518933533937 0.8549879733383484
484 1 1.7099759466766968 4.274939866691742 0.8549879733383484
485 1 1.7099759466766968 3.4199518933533937 1.7099759466766968
486 1 2.564963920015045 4.274939866691742 1.7099759466766968
487 1 2.564963920015045 3.4199518933533937 2.564963920015045
488 1 1.7099759466766968 4.274939866691742 2.564963920015045
489 1 1.7099759466766968 3.4199518933533937 3.4199518933533937
490 1 2.564963920015045 4.274939866691742 3.4199518933533937
491 1 2.564963920015045 3.4199518933533937 4.274939866691742
492 1 1.7099759466766968 4.274939866691742 4.274939866691742
493 1 1.7099759466766968 3.4199518933533937 5.12992784003009
494 1 2.564963920015045 4.274939866691742 5.12992784003009
495 1 2.564963920015045 3.4199518933533937 5.984915813368438
496 1 1.7099759466766968 4.274939866691742 5.984915813368438
497 1 1.7099759466766968 3.4199518933533937 6.839903786706787
498 1 2.564963920015045 4.274939866691742 6.839903786706787
499 1 2.564963920015045 3.4199518933533937 7.694891760045135
500 1 1.7099759466766968 4.274939866691742 7.694891760045135
501 1 1.7099759466766968 3.4199518933533937 8.549879733383484
502 1 2.564963920015045 4.274939866691742 8.549879733383484
503 1 2.564963920015045 3.4199518933533937 9.404867706721832
504 1 1.7099759466766968 4.274939866691742 9.404867706721832
505 1 1.7099759466766968 3.4199518933533937 10.25985568006018
506 1 2.564963920015045 4.274939866691742 10.25985568006018
507 1 2.564963920015045 3.4199518933533937 11.114843653398529
508 1 1.7099759466766968 4.274939866691742 11.114843653398529
509 1 1.7099759466766968 3.4199518933533937 11.969831626736879
510 1 2.564963920015045 4.274939866691742 11.969831626736879
511 1 2.564963920015045 3.4199518933533937 12.824819600075227
512 1 1.7099759466766968 4.274939866691742 12.824819600075227
513 1 1.7099759466766968 3.4199518933533937 13.679807573413575
514 1 2.564963920015045 4.274939866691742 13.679807573413575
515 1 2.564963920015045 3.4199518933533937 14.534795546751923
516 1 1.7099759466766968 4.274939866691742 14.534795546751923
517 1 1.7099759466766968 3.4199518933533937 15.38978352009027
518 1 2.564963920015045 4.274939866691742 15.38978352009027
519 1 2.564963920015045 3.4199518933533937 16.24477149342862
520 1 1.7099759466766968 4.274939866691742 16.24477149342862
521 1 1.7099759466766968 5.12992784003009 0.0
522 1 2.564963920015045 5.984915813368438 0.0
523 1 2.564963920015045 5.12992784003009 0.8549879733383484
524 1 1.7099759466766968 5.984915813368438 0.8549879733383484
525 1 1.7099759466766968 5.12992784003009 1.7099759466766968
526 1 2.564963920015045 5.984915813368438 1.7099759466766968
527 1 2.564963920015045 5.12992784003009 2.564963920015045
528 1 1.7099759466766968 5.984915813368438 2.564963920015045
529 1 1.7099759466766968 5.12992784003009 3.4199518933533937
530 1 2.564963920015045 5.984915813368438 3.4199518933533937
531 1 2.564963920015045 5.12992784003009 4.274939866691742
532 1 1.7099759466766968 5.984915813368438 4.274939866691742
533 1 1.7099759466766968 5.12992784003009 5.12992784003009
534 1 2.564963920015045 5.984915813368438 5.12992784003009
535 1 2.564963920015045 5.12992784003009 5.984915813368438
536 1 1.7099759466766968 5.984915813368438 5.984915813368438
537 1 1.7099759466766968 5.12992784003009 6.839903786706787
538 1 2.564963920015045 5.984915813368438 6.839903786706787
539 1 2.564963920015045 5.12992784003009 7.694891760045135
540 1 1.7099759466766968 5.984915813368438 7.694891760045135
541 1 1.7099759466766968 5.12992784003009 8.549879733383484
542 1 2.564963920015045 5.984915813368438 8.549879733383484
543 1 2.564963920015045 5.12992784003009 9.404867706721832
544 1 1.7099759466766968 5.984915813368438 9.404867706721832
545 1 1.7099759466766968 5.12992784003009 10.25985568006018
546 1 2.564963920015045 5.984915813368438 10.25985568006018
547 1 2.564963920015045 5.12992784003009 11.114843653398529
548 1 1.7099759466766968 5.984915813368438 11.114843653398529
549 1 1.7099759466766968 5.12992784003009 11.969831626736879
550 1 2.564963920015045 5.984915813368438 11.969831626736879
551 1 2.564963920015045 5.12992784003009 12.824819600075227