Position Data

10648 atoms
2 atom types

0.0 40 xlo xhi
0.0 20 ylo yhi
0.0 20 zlo zhi

Atoms

1 1 1.0 1.0 1.0
2 1 1.8636363636363638 1.8636363636363638 1.0
3 1 1.8636363636363638 1.0 1.8636363636363638
4 1 1.0 1.8636363636363638 1.8636363636363638
5 1 1.0 1.0 2.7272727272727275
6 1 1.8636363636363638 1.8636363636363638 2.7272727272727275
7 1 1.8636363636363638 1.0 3.5909090909090913
8 1 1.0 1.8636363636363638 3.5909090909090913
9 1 1.0 1.0 4.454545454545455
10 1 1.8636363636363638 1.8636363636363638 4.454545454545455
11 1 1.8636363636363638 1.0 5.318181818181818
12 1 1.0 1.8636363636363638 5.318181818181818
13 1 1.0 1.0 6.181818181818182
14 1 1.8636363636363638 1.8636363636363638 6.181818181818182
15 1 1.8636363636363638 1.0 7.045454545454545
16 1 1.0 1.8636363636363638 7.045454545454545
17 1 1.0 1.0 7.909090909090909
18 1 1.8636363636363638 1.8636363636363638 7.909090909090909
19 1 1.8636363636363638 1.0 8.772727272727273
20 1 1.0 1.8636363636363638 8.772727272727273
21 1 1.0 1.0 9.636363636363637
22 1 1.8636363636363638 1.8636363636363638 9.636363636363637
23 1 1.8636363636363638 1.0 10.5
24 1 1.0 1.8636363636363638 10.5
25 1 1.0 1.0 11.363636363636363
26 1 1.8636363636363638 1.8636363636363638 11.363636363636363
27 1 1.8636363636363638 1.0 12.227272727272727
28 1 1.0 1.8636363636363638 12.227272727272727
29 1 1.0 1.0 13.090909090909092
30 1 1.8636363636363638 1.8636363636363638 13.090909090909092
31 1 1.8636363636363638 1.0 13.954545454545455
32 1 1.0 1.8636363636363638 13.954545454545455
33 1 1.0 1.0 14.818181818181818
34 1 1.8636363636363638 1.8636363636363638 14.818181818181818
35 1 1.8636363636363638 1.0 15.681818181818182
36 1 1.0 1.8636363636363638 15.681818181818182
37 1 1.0 1.0 16.545454545454547
38 1 1.8636363636363638 1.8636363636363638 16.545454545454547
39 1 1.8636363636363638 1.0 17.40909090909091
40 1 1.0 1.8636363636363638 17.40909090909091
41 1 1.0 1.0 18.272727272727273
42 1 1.8636363636363638 1.8636363636363638 18.272727272727273
43 1 1.8636363636363638 1.0 19.136363636363637
44 1 1.0 1.8636363636363638 19.136363636363637
45 1 1.0 2.7272727272727275 1.0
46 1 1.8636363636363638 3.5909090909090913 1.0
47 1 1.8636363636363638 2.7272727272727275 1.8636363636363638
48 1 1.0 3.5909090909090913 1.8636363636363638
49 1 1.0 2.7272727272727275 2.7272727272727275
50 1 1.8636363636363638 3.5909090909090913 2.7272727272727275
51 1 1.8636363636363638 2.7272727272727275 3.5909090909090913
52 1 1.0 3.5909090909090913 3.5909090909090913
53 1 1.0 2.7272727272727275 4.454545454545455
54 1 1.8636363636363638 3.5909090909090913 4.454545454545455
55 1 1.8636363636363638 2.7272727272727275 5.318181818181818
56 1 1.0 3.5909090909090913 5.318181818181818
57 1 1.0 2.7272727272727275 6.181818181818182
58 1 1.8636363636363638 3.5909090909090913 6.181818181818182
59 1 1.8636363636363638 2.7272727272727275 7.045454545454545
60 1 1.0 3.5909090909090913 7.045454545454545
61 1 1.0 2.7272727272727275 7.909090909090909
62 1 1.8636363636363638 3.5909090909090913 7.909090909090909
63 1 1.8636363636363638 2.7272727272727275 8.772727272727273
64 1 1.0 3.5909090909090913 8.772727272727273
65 1 1.0 2.7272727272727275 9.636363636363637
66 1 1.8636363636363638 3.5909090909090913 9.636363636363637
67 1 1.8636363636363638 2.7272727272727275 10.5
68 1 1.0 3.5909090909090913 10.5
69 1 1.0 2.7272727272727275 11.363636363636363
70 1 1.8636363636363638 3.5909090909090913 11.363636363636363
71 1 1.8636363636363638 2.7272727272727275 12.227272727272727
72 1 1.0 3.5909090909090913 12.227272727272727
73 1 1.0 2.7272727272727275 13.090909090909092
74 1 1.8636363636363638 3.5909090909090913 13.090909090909092
75 1 1.8636363636363638 2.7272727272727275 13.954545454545455
76 1 1.0 3.5909090909090913 13.954545454545455
77 1 1.0 2.7272727272727275 14.818181818181818
78 1 1.8636363636363638 3.5909090909090913 14.818181818181818
79 1 1.8636363636363638 2.7272727272727275 15.681818181818182
80 1 1.0 3.5909090909090913 15.681818181818182
81 1 1.0 2.7272727272727275 16.545454545454547
82 1 1.8636363636363638 3.5909090909090913 16.545454545454547
83 1 1.8636363636363638 2.7272727272727275 17.40909090909091
84 1 1.0 3.5909090909090913 17.40909090909091
85 1 1.0 2.7272727272727275 18.272727272727273
86 1 1.8636363636363638 3.5909090909090913 18.272727272727273
87 1 1.8636363636363638 2.7272727272727275 19.136363636363637
88 1 1.0 3.5909090909090913 19.136363636363637
89 1 1.0 4.454545454545455 1.0
90 1 1.8636363636363638 5.318181818181818 1.0
91 1 1.8636363636363638 4.454545454545455 1.8636363636363638
92 1 1.0 5.318181818181818 1.8636363636363638
93 1 1.0 4.454545454545455 2.7272727272727275
94 1 1.8636363636363638 5.318181818181818 2.7272727272727275
95 1 1.8636363636363638 4.454545454545455 3.5909090909090913
96 1 1.0 5.318181818181818 3.5909090909090913
97 1 1.0 4.454545454545455 4.454545454545455
98 1 1.8636363636363638 5.318181818181818 4.454545454545455
99 1 1.8636363636363638 4.454545454545455 5.318181818181818
100 1 1.0 5.318181818181818 5.318181818181818
101 1 1.0 4.454545454545455 6.181818181818182
102 1 1.8636363636363638 5.318181818181818 6.181818181818182
103 1 1.8636363636363638 4.454545454545455 7.045454545454545
104 1 1.0 5.318181818181818 7.045454545454545
105 1 1.0 4.454545454545455 7.909090909090909
106 1 1.8636363636363638 5.318181818181818 7.909090909090909
107 1 1.8636363636363638 4.454545454545455 8.772727272727273
108 1 1.0 5.318181818181818 8.772727272727273
109 1 1.0 4.454545454545455 9.636363636363637
110 1 1.8636363636363638 5.318181818181818 9.636363636363637
111 1 1.8636363636363638 4.454545454545455 10.5
112 1 1.0 5.318181818181818 10.5
113 1 1.0 4.454545454545455 11.363636363636363
114 1 1.8636363636363638 5.318181818181818 11.363636363636363
115 1 1.8636363636363638 4.454545454545455 12.227272727272727
116 1 1.0 5.318181818181818 12.227272727272727
117 1 1.0 4.454545454545455 13.090909090909092
118 1 1.8636363636363638 5.318181818181818 13.090909090909092
119 1 1.8636363636363638 4.454545454545455 13.954545454545455
120 1 1.0 5.318181818181818 13.954545454545455
121 1 1.0 4.454545454545455 14.818181818181818
122 1 1.8636363636363638 5.318181818181818 14.818181818181818
123 1 1.8636363636363638 4.454545454545455 15.681818181818182
124 1 1.0 5.318181818181818 15.681818181818182
125 1 1.0 4.454545454545455 16.545454545454547
126 1 1.8636363636363638 5.318181818181818 16.545454545454547
127 1 1.8636363636363638 4.454545454545455 17.40909090909091
128 1 1.0 5.318181818181818 17.40909090909091
129 1 1.0 4.454545454545455 18.272727272727273
130 1 1.8636363636363638 5.318181818181818 18.272727272727273
131 1 1.8636363636363638 4.454545454545455 19.136363636363637
132 1 1.0 5.318181818181818 19.136363636363637
133 1 1.0 6.181818181818182 1.0
134 1 1.8636363636363638 7.045454545454545 1.0
135 1 1.8636363636363638 6.181818181818182 1.8636363636363638
136 1 1.0 7.045454545454545 1.8636363636363638
137 1 1.0 6.181818181818182 2.7272727272727275
138 1 1.8636363636363638 7.045454545454545 2.7272727272727275
139 1 1.8636363636363638 6.181818181818182 3.5909090909090913
140 1 1.0 7.045454545454545 3.5909090909090913
141 1 1.0 6.181818181818182 4.454545454545455
142 1 1.8636363636363638 7.045454545454545 4.454545454545455
143 1 1.8636363636363638 6.181818181818182 5.318181818181818
144 1 1.0 7.045454545454545 5.318181818181818
145 1 1.0 6.181818181818182 6.181818181818182
146 1 1.8636363636363638 7.045454545454545 6.181818181818182
147 1 1.8636363636363638 6.181818181818182 7.045454545454545
148 1 1.0 7.045454545454545 7.045454545454545
149 1 1.0 6.181818181818182 7.909090909090909
150 1 1.8636363636363638 7.045454545454545 7.909090909090909
151 1 1.8636363636363638 6.181818181818182 8.772727272727273
152 1 1.0 7.045454545454545 8.772727272727273
153 1 1.0 6.181818181818182 9.636363636363637
154 1 1.8636363636363638 7.045454545454545 9.636363636363637
155 1 1.8636363636363638 6.181818181818182 10.5
156 1 1.0 7.045454545454545 10.5
157 1 1.0 6.181818181818182 11.363636363636363
158 1 1.8636363636363638 7.045454545454545 11.363636363636363
159 1 1.8636363636363638 6.181818181818182 12.227272727272727
160 1 1.0 7.045454545454545 12.227272727272727
161 1 1.0 6.181818181818182 13.090909090909092
162 1 1.8636363636363638 7.045454545454545 13.090909090909092
163 1 1.8636363636363638 6.181818181818182 13.954545454545455
164 1 1.0 7.045454545454545 13.954545454545455
165 1 1.0 6.181818181818182 14.818181818181818
166 1 1.8636363636363638 7.045454545454545 14.818181818181818
167 1 1.8636363636363638 6.181818181818182 15.681818181818182
168 1 1.0 7.045454545454545 15.681818181818182
169 1 1.0 6.181818181818182 16.545454545454547
170 1 1.8636363636363638 7.045454545454545 16.545454545454547
171 1 1.8636363636363638 6.181818181818182 17.40909090909091
172 1 1.0 7.045454545454545 17.40909090909091
173 1 1.0 6.181818181818182 18.272727272727273
174 1 1.8636363636363638 7.045454545454545 18.272727272727273
175 1 1.8636363636363638 6.181818181818182 19.136363636363637
176 1 1.0 7.045454545454545 19.136363636363637
177 1 1.0 7.909090909090909 1.0
178 1 1.8636363636363638 8.772727272727273 1.0
179 1 1.8636363636363638 7.909090909090909 1.8636363636363638
180 1 1.0 8.772727272727273 1.8636363636363638
181 1 1.0 7.909090909090909 2.7272727272727275
182 1 1.8636363636363638 8.772727272727273 2.7272727272727275
183 1 1.8636363636363638 7.909090909090909 3.5909090909090913
184 1 1.0 8.772727272727273 3.5909090909090913
185 1 1.0 7.909090909090909 4.454545454545455
186 1 1.8636363636363638 8.772727272727273 4.454545454545455
187 1 1.8636363636363638 7.909090909090909 5.318181818181818
188 1 1.0 8.772727272727273 5.318181818181818
189 1 1.0 7.909090909090909 6.181818181818182
190 1 1.8636363636363638 8.772727272727273 6.181818181818182
191 1 1.8636363636363638 7.909090909090909 7.045454545454545
192 1 1.0 8.772727272727273 7.045454545454545
193 1 1.0 7.909090909090909 7.909090909090909
194 1 1.8636363636363638 8.772727272727273 7.909090909090909
195 1 1.8636363636363638 7.909090909090909 8.772727272727273
196 1 1.0 8.772727272727273 8.772727272727273
197 1 1.0 7.909090909090909 9.636363636363637
198 1 1.8636363636363638 8.772727272727273 9.636363636363637
199 1 1.8636363636363638 7.909090909090909 10.5
200 1 1.0 8.772727272727273 10.5
201 1 1.0 7.909090909090909 11.363636363636363
202 1 1.8636363636363638 8.772727272727273 11.363636363636363
203 1 1.8636363636363638 7.909090909090909 12.227272727272727
204 1 1.0 8.772727272727273 12.227272727272727
205 1 1.0 7.909090909090909 13.090909090909092
206 1 1.8636363636363638 8.772727272727273 13.090909090909092
207 1 1.8636363636363638 7.909090909090909 13.954545454545455
208 1 1.0 8.772727272727273 13.954545454545455
209 1 1.0 7.909090909090909 14.818181818181818
210 1 1.8636363636363638 8.772727272727273 14.818181818181818
211 1 1.8636363636363638 7.909090909090909 15.681818181818182
212 1 1.0 8.772727272727273 15.681818181818182
213 1 1.0 7.909090909090909 16.545454545454547
214 1 1.8636363636363638 8.772727272727273 16.545454545454547
215 1 1.8636363636363638 7.909090909090909 17.40909090909091
216 1 1.0 8.772727272727273 17.40909090909091
217 1 1.0 7.909090909090909 18.272727272727273
218 1 1.8636363636363638 8.772727272727273 18.272727272727273
219 1 1.8636363636363638 7.909090909090909 19.136363636363637
220 1 1.0 8.772727272727273 19.136363636363637
221 1 1.0 9.636363636363637 1.0
222 1 1.8636363636363638 10.5 1.0
223 1 1.8636363636363638 9.636363636363637 1.8636363636363638
224 1 1.0 10.5 1.8636363636363638
225 1 1.0 9.636363636363637 2.7272727272727275
226 1 1.8636363636363638 10.5 2.7272727272727275
227 1 1.8636363636363638 9.636363636363637 3.5909090909090913
228 1 1.0 10.5 3.5909090909090913
229 1 1.0 9.636363636363637 4.454545454545455
230 1 1.8636363636363638 10.5 4.454545454545455
231 1 1.8636363636363638 9.636363636363637 5.318181818181818
232 1 1.0 10.5 5.318181818181818
233 1 1.0 9.636363636363637 6.181818181818182
234 1 1.8636363636363638 10.5 6.181818181818182
235 1 1.8636363636363638 9.636363636363637 7.045454545454545
236 1 1.0 10.5 7.045454545454545
237 1 1.0 9.636363636363637 7.909090909090909
238 1 1.8636363636363638 10.5 7.909090909090909
239 1 1.8636363636363638 9.636363636363637 8.772727272727273
240 1 1.0 10.5 8.772727272727273
241 1 1.0 9.636363636363637 9.636363636363637
242 1 1.8636363636363638 10.5 9.636363636363637
243 1 1.8636363636363638 9.636363636363637 10.5
244 1 1.0 10.5 10.5
245 1 1.0 9.636363636363637 11.363636363636363
246 1 1.8636363636363638 10.5 11.363636363636363
247 1 1.8636363636363638 9.636363636363637 12.227272727272727
248 1 1.0 10.5 12.227272727272727
249 1 1.0 9.636363636363637 13.090909090909092
250 1 1.8636363636363638 10.5 13.090909090909092
251 1 1.8636363636363638 9.636363636363637 13.954545454545455
252 1 1.0 10.5 13.954545454545455
253 1 1.0 9.636363636363637 14.818181818181818
254 1 1.8636363636363638 10.5 14.818181818181818
255 1 1.8636363636363638 9.636363636363637 15.681818181818182
256 1 1.0 10.5 15.681818181818182
257 1 1.0 9.636363636363637 16.545454545454547
258 1 1.8636363636363638 10.5 16.545454545454547
259 1 1.8636363636363638 9.636363636363637 17.40909090909091
260 1 1.0 10.5 17.40909090909091
261 1 1.0 9.636363636363637 18.272727272727273
262 1 1.8636363636363638 10.5 18.272727272727273
263 1 1.8636363636363638 9.636363636363637 19.136363636363637
264 1 1.0 10.5 19.136363636363637
265 1 1.0 11.363636363636363 1.0
266 1 1.8636363636363638 12.227272727272727 1.0
267 1 1.8636363636363638 11.363636363636363 1.8636363636363638
268 1 1.0 12.227272727272727 1.8636363636363638
269 1 1.0 11.363636363636363 2.7272727272727275
270 1 1.8636363636363638 12.227272727272727 2.7272727272727275
271 1 1.8636363636363638 11.363636363636363 3.5909090909090913
272 1 1.0 12.227272727272727 3.5909090909090913
273 1 1.0 11.363636363636363 4.454545454545455
274 1 1.8636363636363638 12.227272727272727 4.454545454545455
275 1 1.8636363636363638 11.363636363636363 5.318181818181818
276 1 1.0 12.227272727272727 5.318181818181818
277 1 1.0 11.363636363636363 6.181818181818182
278 1 1.8636363636363638 12.227272727272727 6.181818181818182
279 1 1.8636363636363638 11.363636363636363 7.045454545454545
280 1 1.0 12.227272727272727 7.045454545454545
281 1 1.0 11.363636363636363 7.909090909090909
282 1 1.8636363636363638 12.227272727272727 7.909090909090909
283 1 1.8636363636363638 11.363636363636363 8.772727272727273
284 1 1.0 12.227272727272727 8.772727272727273
285 1 1.0 11.363636363636363 9.636363636363637
286 1 1.8636363636363638 12.227272727272727 9.636363636363637
287 1 1.8636363636363638 11.363636363636363 10.5
288 1 1.0 12.227272727272727 10.5
289 1 1.0 11.363636363636363 11.363636363636363
290 1 1.8636363636363638 12.227272727272727 11.363636363636363
291 1 1.8636363636363638 11.363636363636363 12.227272727272727
292 1 1.0 12.227272727272727 12.227272727272727
293 1 1.0 11.363636363636363 13.090909090909092
294 1 1.8636363636363638 12.227272727272727 13.090909090909092
295 1 1.8636363636363638 11.363636363636363 13.954545454545455
296 1 1.0 12.227272727272727 13.954545454545455
297 1 1.0 11.363636363636363 14.818181818181818
298 1 1.8636363636363638 12.227272727272727 14.818181818181818
299 1 1.8636363636363638 11.363636363636363 15.681818181818182
300 1 1.0 12.227272727272727 15.681818181818182
301 1 1.0 11.363636363636363 16.545454545454547
302 1 1.8636363636363638 12.227272727272727 16.545454545454547
303 1 1.8636363636363638 11.363636363636363 17.40909090909091
304 1 1.0 12.227272727272727 17.40909090909091
305 1 1.0 11.363636363636363 18.272727272727273
306 1 1.8636363636363638 12.227272727272727 18.272727272727273
307 1 1.8636363636363638 11.363636363636363 19.136363636363637
308 1 1.0 12.227272727272727 19.136363636363637
309 1 1.0 13.090909090909092 1.0
310 1 1.8636363636363638 13.954545454545455 1.0
311 1 1.8636363636363638 13.090909090909092 1.8636363636363638
312 1 1.0 13.954545454545455 1.8636363636363638
313 1 1.0 13.090909090909092 2.7272727272727275
314 1 1.8636363636363638 13.954545454545455 2.7272727272727275
315 1 1.8636363636363638 13.090909090909092 3.5909090909090913
316 1 1.0 13.954545454545455 3.5909090909090913
317 1 1.0 13.090909090909092 4.454545454545455
318 1 1.8636363636363638 13.954545454545455 4.454545454545455
319 1 1.8636363636363638 13.090909090909092 5.318181818181818
320 1 1.0 13.954545454545455 5.318181818181818
321 1 1.0 13.090909090909092 6.181818181818182
322 1 1.8636363636363638 13.954545454545455 6.181818181818182
323 1 1.8636363636363638 13.090909090909092 7.045454545454545
324 1 1.0 13.954545454545455 7.045454545454545
325 1 1.0 13.090909090909092 7.909090909090909
326 1 1.8636363636363638 13.954545454545455 7.909090909090909
327 1 1.8636363636363638 13.090909090909092 8.772727272727273
328 1 1.0 13.954545454545455 8.772727272727273
329 1 1.0 13.090909090909092 9.636363636363637
330 1 1.8636363636363638 13.954545454545455 9.636363636363637
331 1 1.8636363636363638 13.090909090909092 10.5
332 1 1.0 13.954545454545455 10.5
333 1 1.0 13.090909090909092 11.363636363636363
334 1 1.8636363636363638 13.954545454545455 11.363636363636363
335 1 1.8636363636363638 13.090909090909092 12.227272727272727
336 1 1.0 13.954545454545455 12.227272727272727
337 1 1.0 13.090909090909092 13.090909090909092
338 1 1.8636363636363638 13.954545454545455 13.090909090909092
339 1 1.8636363636363638 13.090909090909092 13.954545454545455
340 1 1.0 13.954545454545455 13.954545454545455
341 1 1.0 13.090909090909092 14.818181818181818
342 1 1.8636363636363638 13.954545454545455 14.818181818181818
343 1 1.8636363636363638 13.090909090909092 15.681818181818182
344 1 1.0 13.954545454545455 15.681818181818182
345 1 1.0 13.090909090909092 16.545454545454547
346 1 1.8636363636363638 13.954545454545455 16.545454545454547
347 1 1.8636363636363638 13.090909090909092 17.40909090909091
348 1 1.0 13.954545454545455 17.40909090909091
349 1 1.0 13.090909090909092 18.272727272727273
350 1 1.8636363636363638 13.954545454545455 18.272727272727273
351 1 1.8636363636363638 13.090909090909092 19.136363636363637
352 1 1.0 13.954545454545455 19.136363636363637
353 1 1.0 14.818181818181818 1.0
354 1 1.8636363636363638 15.681818181818182 1.0
355 1 1.8636363636363638 14.818181818181818 1.8636363636363638
356 1 1.0 15.681818181818182 1.8636363636363638
357 1 1.0 14.818181818181818 2.7272727272727275
358 1 1.8636363636363638 15.681818181818182 2.7272727272727275
359 1 1.8636363636363638 14.818181818181818 3.5909090909090913
360 1 1.0 15.681818181818182 3.5909090909090913
361 1 1.0 14.818181818181818 4.454545454545455
362 1 1.8636363636363638 15.681818181818182 4.454545454545455
363 1 1.8636363636363638 14.818181818181818 5.318181818181818
364 1 1.0 15.681818181818182 5.318181818181818
365 1 1.0 14.818181818181818 6.181818181818182
366 1 1.8636363636363638 15.681818181818182 6.181818181818182
367 1 1.8636363636363638 14.818181818181818 7.045454545454545
368 1 1.0 15.681818181818182 7.045454545454545
369 1 1.0 14.818181818181818 7.909090909090909
370 1 1.8636363636363638 15.681818181818182 7.909090909090909
371 1 1.8636363636363638 14.818181818181818 8.772727272727273
372 1 1.0 15.681818181818182 8.772727272727273
373 1 1.0 14.818181818181818 9.636363636363637
374 1 1.8636363636363638 15.681818181818182 9.636363636363637
375 1 1.8636363636363638 14.818181818181818 10.5
376 1 1.0 15.681818181818182 10.5
377 1 1.0 14.818181818181818 11.363636363636363
378 1 1.8636363636363638 15.681818181818182 11.363636363636363
379 1 1.8636363636363638 14.818181818181818 12.227272727272727
380 1 1.0 15.681818181818182 12.227272727272727
381 1 1.0 14.818181818181818 13.090909090909092
382 1 1.8636363636363638 15.681818181818182 13.090909090909092
383 1 1.8636363636363638 14.818181818181818 13.954545454545455
384 1 1.0 15.681818181818182 13.954545454545455
385 1 1.0 14.818181818181818 14.818181818181818
386 1 1.8636363636363638 15.681818181818182 14.818181818181818
387 1 1.8636363636363638 14.818181818181818 15.681818181818182
388 1 1.0 15.681818181818182 15.681818181818182
389 1 1.0 14.818181818181818 16.545454545454547
390 1 1.8636363636363638 15.681818181818182 16.545454545454547
391 1 1.8636363636363638 14.818181818181818 17.40909090909091
392 1 1.0 15.681818181818182 17.40909090909091
393 1 1.0 14.818181818181818 18.272727272727273
394 1 1.8636363636363638 15.681818181818182 18.272727272727273
395 1 1.8636363636363638 14.818181818181818 19.136363636363637
396 1 1.0 15.681818181818182 19.136363636363637
397 1 1.0 16.545454545454547 1.0
398 1 1.8636363636363638 17.40909090909091 1.0
399 1 1.8636363636363638 16.545454545454547 1.8636363636363638
400 1 1.0 17.40909090909091 1.8636363636363638
401 1 1.0 16.545454545454547 2.7272727272727275
402 1 1.8636363636363638 17.40909090909091 2.7272727272727275
403 1 1.8636363636363638 16.545454545454547 3.5909090909090913
404 1 1.0 17.40909090909091 3.5909090909090913
405 1 1.0 16.545454545454547 4.454545454545455
406 1 1.8636363636363638 17.40909090909091 4.454545454545455
407 1 1.8636363636363638 16.545454545454547 5.318181818181818
408 1 1.0 17.40909090909091 5.318181818181818
409 1 1.0 16.545454545454547 6.181818181818182
410 1 1.8636363636363638 17.40909090909091 6.181818181818182
411 1 1.8636363636363638 16.545454545454547 7.045454545454545
412 1 1.0 17.40909090909091 7.045454545454545
413 1 1.0 16.545454545454547 7.909090909090909
414 1 1.8636363636363638 17.40909090909091 7.909090909090909
415 1 1.8636363636363638 16.545454545454547 8.772727272727273
416 1 1.0 17.40909090909091 8.772727272727273
417 1 1.0 16.545454545454547 9.636363636363637
418 1 1.8636363636363638 17.40909090909091 9.636363636363637
419 1 1.8636363636363638 16.545454545454547 10.5
420 1 1.0 17.40909090909091 10.5
421 1 1.0 16.545454545454547 11.363636363636363
422 1 1.8636363636363638 17.40909090909091 11.363636363636363
423 1 1.8636363636363638 16.545454545454547 12.227272727272727
424 1 1.0 17.40909090909091 12.227272727272727
425 1 1.0 16.545454545454547 13.090909090909092
426 1 1.8636363636363638 17.40909090909091 13.090909090909092
427 1 1.8636363636363638 16.545454545454547 13.954545454545455
428 1 1.0 17.40909090909091 13.954545454545455
429 1 1.0 16.545454545454547 14.818181818181818
430 1 1.8636363636363638 17.40909090909091 14.818181818181818
431 1 1.8636363636363638 16.545454545454547 15.681818181818182
432 1 1.0 17.40909090909091 15.681818181818182
433 1 1.0 16.545454545454547 16.545454545454547
434 1 1.8636363636363638 17.40909090909091 16.545454545454547
435 1 1.8636363636363638 16.545454545454547 17.40909090909091
436 1 1.0 17.40909090909091 17.40909090909091
437 1 1.0 16.545454545454547 18.272727272727273
438 1 1.8636363636363638 17.40909090909091 18.272727272727273
439 1 1.8636363636363638 16.545454545454547 19.136363636363637
440 1 1.0 17.40909090909091 19.136363636363637
441 1 1.0 18.272727272727273 1.0
442 1 1.8636363636363638 19.136363636363637 1.0
443 1 1.8636363636363638 18.272727272727273 1.8636363636363638
444 1 1.0 19.136363636363637 1.8636363636363638
445 1 1.0 18.272727272727273 2.7272727272727275
446 1 1.8636363636363638 19.136363636363637 2.7272727272727275
447 1 1.8636363636363638 18.272727272727273 3.5909090909090913
448 1 1.0 19.136363636363637 3.5909090909090913
449 1 1.0 18.272727272727273 4.454545454545455
450 1 1.8636363636363638 19.136363636363637 4.454545454545455
451 1 1.8636363636363638 18.272727272727273 5.318181818181818
452 1 1.0 19.136363636363637 5.318181818181818
453 1 1.0 18.272727272727273 6.181818181818182
454 1 1.8636363636363638 19.136363636363637 6.181818181818182
455 1 1.8636363636363638 18.272727272727273 7.045454545454545
456 1 1.0 19.136363636363637 7.045454545454545
457 1 1.0 18.272727272727273 7.909090909090909
458 1 1.8636363636363638 19.136363636363637 7.909090909090909
459 1 1.8636363636363638 18.272727272727273 8.772727272727273
460 1 1.0 19.136363636363637 8.772727272727273
461 1 1.0 18.272727272727273 9.636363636363637
462 1 1.8636363636363638 19.136363636363637 9.636363636363637
463 1 1.8636363636363638 18.272727272727273 10.5
464 1 1.0 19.136363636363637 10.5
465 1 1.0 18.272727272727273 11.363636363636363
466 1 1.8636363636363638 19.136363636363637 11.363636363636363
467 1 1.8636363636363638 18.272727272727273 12.227272727272727
468 1 1.0 19.136363636363637 12.227272727272727
469 1 1.0 18.272727272727273 13.090909090909092
470 1 1.8636363636363638 19.136363636363637 13.090909090909092
471 1 1.8636363636363638 18.272727272727273 13.954545454545455
472 1 1.0 19.136363636363637 13.954545454545455
473 1 1.0 18.272727272727273 14.818181818181818
474 1 1.8636363636363638 19.136363636363637 14.818181818181818
475 1 1.8636363636363638 18.272727272727273 15.681818181818182
476 1 1.0 19.136363636363637 15.681818181818182
477 1 1.0 18.272727272727273 16.545454545454547
478 1 1.8636363636363638 19.136363636363637 16.545454545454547
479 1 1.8636363636363638 18.272727272727273 17.40909090909091
480 1 1.0 19.136363636363637 17.40909090909091
481 1 1.0 18.272727272727273 18.272727272727273
482 1 1.8636363636363638 19.136363636363637 18.272727272727273
483 1 1.8636363636363638 18.272727272727273 19.136363636363637
484 1 1.0 19.136363636363637 19.136363636363637
485 1 2.7272727272727275 1.0 1.0
486 1 3.5909090909090913 1.8636363636363638 1.0
487 1 3.5909090909090913 1.0 1.8636363636363638
488 1 2.7272727272727275 1.8636363636363638 1.8636363636363638
489 1 2.7272727272727275 1.0 2.7272727272727275
490 1 3.5909090909090913 1.8636363636363638 2.7272727272727275
491 1 3.5909090909090913 1.0 3.5909090909090913
492 1 2.7272727272727275 1.8636363636363638 3.5909090909090913
493 1 2.7272727272727275 1.0 4.454545454545455
494 1 3.5909090909090913 1.8636363636363638 4.454545454545455
495 1 3.5909090909090913 1.0 5.318181818181818
496 1 2.7272727272727275 1.8636363636363638 5.318181818181818
497 1 2.7272727272727275 1.0 6.181818181818182
498 1 3.5909090909090913 1.8636363636363638 6.181818181818182
499 1 3.5909090909090913 1.0 7.045454545454545
500 1 2.7272727272727275 1.8636363636363638 7.045454545454545
501 1 2.7272727272727275 1.0 7.909090909090909
502 1 3.5909090909090913 1.8636363636363638 7.909090909090909
503 1 3.5909090909090913 1.0 8.772727272727273
504 1 2.7272727272727275 1.8636363636363638 8.772727272727273
505 1 2.7272727272727275 1.0 9.636363636363637
506 1 3.5909090909090913 1.8636363636363638 9.636363636363637
507 1 3.5909090909090913 1.0 10.5
508 1 2.7272727272727275 1.8636363636363638 10.5
509 1 2.7272727272727275 1.0 11.363636363636363
510 1 3.5909090909090913 1.8636363636363638 11.363636363636363
511 1 3.5909090909090913 1.0 12.227272727272727
512 1 2.7272727272727275 1.8636363636363638 12.227272727272727
513 1 2.7272727272727275 1.0 13.090909090909092
514 1 3.5909090909090913 1.8636363636363638 13.090909090909092
515 1 3.5909090909090913 1.0 13.954545454545455
516 1 2.7272727272727275 1.8636363636363638 13.954545454545455
517 1 2.7272727272727275 1.0 14.818181818181818
518 1 3.5909090909090913 1.8636363636363638 14.818181818181818
519 1 3.5909090909090913 1.0 15.681818181818182
520 1 2.7272727272727275 1.8636363636363638 15.681818181818182
521 1 2.7272727272727275 1.0 16.545454545454547
522 1 3.5909090909090913 1.8636363636363638 16.545454545454547
523 1 3.5909090909090913 1.0 17.40909090909091
524 1 2.7272727272727275 1.8636363636363638 17.40909090909091
525 1 2.7272727272727275 1.0 18.272727272727273
526 1 3.5909090909090913 1.8636363636363638 18.272727272727273
527 1 3.5909090909090913 1.0 19.136363636363637
528 1 2.7272727272727275 1.8636363636363638 19.136363636363637
529 1 2.7272727272727275 2.7272727272727275 1.0
530 1 3.5909090909090913 3.5909090909090913 1.0
531 1 3.5909090909090913 2.7272727272727275 1.8636363636363638
532 1 2.7272727272727275 3.5909090909090913 1.8636363636363638
533 1 2.7272727272727275 2.7272727272727275 2.7272727272727275
534 1 3.5909090909090913 3.5909090909090913 2.7272727272727275
535 1 3.5909090909090913 2.7272727272727275 3.5909090909090913
536 1 2.7272727272727275 3.5909090909090913 3.5909090909090913
537 1 2.7272727272727275 2.7272727272727275 4.454545454545455
538 1 3.5909090909090913 3.5909090909090913 4.454545454545455
539 1 3.5909090909090913 2.7272727272727275 5.318181818181818
540 1 2.7272727272727275 3.5909090909090913 5.318181818181818
541 1 2.7272727272727275 2.7272727272727275 6.181818181818182
542 1 3.5909090909090913 3.5909090909090913 6.181818181818182
543 1 3.5909090909090913 2.7272727272727275 7.045454545454545
544 1 2.7272727272727275 3.5909090909090913 7.045454545454545
545 1 2.7272727272727275 2.7272727272727275 7.909090909090909
546 1 3.5909090909090913 3.5909090909090913 7.909090909090909
547 1 3.5909090909090913 2.7272727272727275 8.772727272727273
548 1 2.7272727272727275 3.5909090909090913 8.772727272727273
549 1 2.7272727272727275 2.7272727272727275 9.636363636363637
550 1 3.5909090909090913 3.5909090909090913 9.636363636363637
551 1 3.5909090909090913 2.7272727272727275 10.5
552 1 2.7272727272727275 3.5909090909090913 10.5
553 1 2.7272727272727275 2.7272727272727275 11.363636363636363
554 1 3.5909090909090913 3.5909090909090913 11.363636363636363
555 1 3.5909090909090913 2.7272727272727275 12.227272727272727
556 1 2.7272727272727275 3.5909090909090913 12.227272727272727
557 1 2.7272727272727275 2.7272727272727275 13.090909090909092
558 1 3.5909090909090913 3.5909090909090913 13.090909090909092
559 1 3.5909090909090913 2.7272727272727275 13.954545454545455
560 1 2.7272727272727275 3.5909090909090913 13.954545454545455
561 1 2.7272727272727275 2.7272727272727275 14.818181818181818
562 1 3.5909090909090913 3.5909090909090913 14.818181818181818
563 1 3.5909090909090913 2.7272727272727275 15.681818181818182
564 1 2.7272727272727275 3.5909090909090913 15.681818181818182
565 1 2.7272727272727275 2.7272727272727275 16.545454545454547
566 1 3.5909090909090913 3.5909090909090913 16.545454545454547
567 1 3.5909090909090913 2.7272727272727275 17.40909090909091