ITEM: TIMESTEP
0
ITEM: NUMBER OF ATOMS
864
ITEM: BOX BOUNDS pp pp pp
0.0000000000000000e+00 1.5119052598738476e+01
0.0000000000000000e+00 7.5595262993692378e+00
0.0000000000000000e+00 7.5595262993692378e+00
ITEM: ATOMS id type xs ys zs
1 1 0 0 0
2 1 0.0416667 0.0833333 0
3 1 0.0416667 0 0.0833333
4 1 0 0.0833333 0.0833333
5 1 0 0 0.166667
6 1 0.0416667 0.0833333 0.166667
7 1 0.0416667 0 0.25
8 1 0 0.0833333 0.25
25 1 0 0.166667 0
26 1 0.0416667 0.25 0
27 1 0.0416667 0.166667 0.0833333
28 1 0 0.25 0.0833333
29 1 0 0.166667 0.166667
30 1 0.0416667 0.25 0.166667
31 1 0.0416667 0.166667 0.25
32 1 0 0.25 0.25
145 1 0.0833333 0 0
148 1 0.0833333 0.0833333 0.0833333
149 1 0.0833333 0 0.166667
152 1 0.0833333 0.0833333 0.25
169 1 0.0833333 0.166667 0
172 1 0.0833333 0.25 0.0833333
173 1 0.0833333 0.166667 0.166667
176 1 0.0833333 0.25 0.25
146 1 0.125 0.0833333 0
147 1 0.125 0 0.0833333
150 1 0.125 0.0833333 0.166667
151 1 0.125 0 0.25
170 1 0.125 0.25 0
171 1 0.125 0.166667 0.0833333
174 1 0.125 0.25 0.166667
175 1 0.125 0.166667 0.25
289 1 0.166667 0 0
290 1 0.208333 0.0833333 0
291 1 0.208333 0 0.0833333
292 1 0.166667 0.0833333 0.0833333
293 1 0.166667 0 0.166667
294 1 0.208333 0.0833333 0.166667
295 1 0.208333 0 0.25
296 1 0.166667 0.0833333 0.25
313 1 0.166667 0.166667 0
314 1 0.208333 0.25 0
315 1 0.208333 0.166667 0.0833333
316 1 0.166667 0.25 0.0833333
317 1 0.166667 0.166667 0.166667
318 1 0.208333 0.25 0.166667
319 1 0.208333 0.166667 0.25
320 1 0.166667 0.25 0.25
433 1 0.25 0 0
434 1 0.291667 0.0833333 0
435 1 0.291667 0 0.0833333
436 1 0.25 0.0833333 0.0833333
437 1 0.25 0 0.166667
438 1 0.291667 0.0833333 0.166667
439 1 0.291667 0 0.25
440 1 0.25 0.0833333 0.25
457 1 0.25 0.166667 0
458 1 0.291667 0.25 0
459 1 0.291667 0.166667 0.0833333
460 1 0.25 0.25 0.0833333
461 1 0.25 0.166667 0.166667
462 1 0.291667 0.25 0.166667
463 1 0.291667 0.166667 0.25
464 1 0.25 0.25 0.25
577 1 0.333333 0 0
578 1 0.375 0.0833333 0
579 1 0.375 0 0.0833333
580 1 0.333333 0.0833333 0.0833333
581 1 0.333333 0 0.166667
582 1 0.375 0.0833333 0.166667
583 1 0.375 0 0.25
584 1 0.333333 0.0833333 0.25
601 1 0.333333 0.166667 0
602 1 0.375 0.25 0
603 1 0.375 0.166667 0.0833333
604 1 0.333333 0.25 0.0833333
605 1 0.333333 0.166667 0.166667
606 1 0.375 0.25 0.166667
607 1 0.375 0.166667 0.25
608 1 0.333333 0.25 0.25
721 1 0.416667 0 0
724 1 0.416667 0.0833333 0.0833333
725 1 0.416667 0 0.166667
728 1 0.416667 0.0833333 0.25
745 1 0.416667 0.166667 0
748 1 0.416667 0.25 0.0833333
749 1 0.416667 0.166667 0.166667
752 1 0.416667 0.25 0.25
722 1 0.458333 0.0833333 0
723 1 0.458333 0 0.0833333
726 1 0.458333 0.0833333 0.166667
727 1 0.458333 0 0.25
746 1 0.458333 0.25 0
747 1 0.458333 0.166667 0.0833333
750 1 0.458333 0.25 0.166667
751 1 0.458333 0.166667 0.25
49 1 0 0.333333 0
50 1 0.0416667 0.416667 0
51 1 0.0416667 0.333333 0.0833333
52 1 0 0.416667 0.0833333
53 1 0 0.333333 0.166667
54 1 0.0416667 0.416667 0.166667
55 1 0.0416667 0.333333 0.25
56 1 0 0.416667 0.25
73 1 0 0.5 0
75 1 0.0416667 0.5 0.0833333
77 1 0 0.5 0.166667
79 1 0.0416667 0.5 0.25
193 1 0.0833333 0.333333 0
196 1 0.0833333 0.416667 0.0833333
197 1 0.0833333 0.333333 0.166667
200 1 0.0833333 0.416667 0.25
217 1 0.0833333 0.5 0
221 1 0.0833333 0.5 0.166667
194 1 0.125 0.416667 0
195 1 0.125 0.333333 0.0833333
198 1 0.125 0.416667 0.166667
199 1 0.125 0.333333 0.25
219 1 0.125 0.5 0.0833333
223 1 0.125 0.5 0.25
337 1 0.166667 0.333333 0
338 1 0.208333 0.416667 0
339 1 0.208333 0.333333 0.0833333
340 1 0.166667 0.416667 0.0833333
341 1 0.166667 0.333333 0.166667
342 1 0.208333 0.416667 0.166667
343 1 0.208333 0.333333 0.25
344 1 0.166667 0.416667 0.25
361 1 0.166667 0.5 0
363 1 0.208333 0.5 0.0833333
365 1 0.166667 0.5 0.166667
367 1 0.208333 0.5 0.25
481 1 0.25 0.333333 0
482 1 0.291667 0.416667 0
483 1 0.291667 0.333333 0.0833333
484 1 0.25 0.416667 0.0833333
485 1 0.25 0.333333 0.166667
486 1 0.291667 0.416667 0.166667
487 1 0.291667 0.333333 0.25
488 1 0.25 0.416667 0.25
505 1 0.25 0.5 0
507 1 0.291667 0.5 0.0833333
509 1 0.25 0.5 0.166667
511 1 0.291667 0.5 0.25
625 1 0.333333 0.333333 0
626 1 0.375 0.416667 0
627 1 0.375 0.333333 0.0833333
628 1 0.333333 0.416667 0.0833333
629 1 0.333333 0.333333 0.166667
630 1 0.375 0.416667 0.166667
631 1 0.375 0.333333 0.25
632 1 0.333333 0.416667 0.25
649 1 0.333333 0.5 0
651 1 0.375 0.5 0.0833333
653 1 0.333333 0.5 0.166667
655 1 0.375 0.5 0.25
769 1 0.416667 0.333333 0
772 1 0.416667 0.416667 0.0833333
773 1 0.416667 0.333333 0.166667
776 1 0.416667 0.416667 0.25
793 1 0.416667 0.5 0
797 1 0.416667 0.5 0.166667
770 1 0.458333 0.416667 0
771 1 0.458333 0.333333 0.0833333
774 1 0.458333 0.416667 0.166667
775 1 0.458333 0.333333 0.25
795 1 0.458333 0.5 0.0833333
799 1 0.458333 0.5 0.25
74 1 0.0416667 0.583333 0
76 1 0 0.583333 0.0833333
78 1 0.0416667 0.583333 0.166667
80 1 0 0.583333 0.25
97 1 0 0.666667 0
98 1 0.0416667 0.75 0
99 1 0.0416667 0.666667 0.0833333
100 1 0 0.75 0.0833333
101 1 0 0.666667 0.166667
102 1 0.0416667 0.75 0.166667
103 1 0.0416667 0.666667 0.25
104 1 0 0.75 0.25
220 1 0.0833333 0.583333 0.0833333
224 1 0.0833333 0.583333 0.25
241 1 0.0833333 0.666667 0
244 1 0.0833333 0.75 0.0833333
245 1 0.0833333 0.666667 0.166667
248 1 0.0833333 0.75 0.25
218 1 0.125 0.583333 0
222 1 0.125 0.583333 0.166667
242 1 0.125 0.75 0
243 1 0.125 0.666667 0.0833333
246 1 0.125 0.75 0.166667
247 1 0.125 0.666667 0.25
362 1 0.208333 0.583333 0
364 1 0.166667 0.583333 0.0833333
366 1 0.208333 0.583333 0.166667
368 1 0.166667 0.583333 0.25
385 1 0.166667 0.666667 0
386 1 0.208333 0.75 0
387 1 0.208333 0.666667 0.0833333
388 1 0.166667 0.75 0.0833333
389 1 0.166667 0.666667 0.166667
390 1 0.208333 0.75 0.166667
391 1 0.208333 0.666667 0.25
392 1 0.166667 0.75 0.25
506 1 0.291667 0.583333 0
508 1 0.25 0.583333 0.0833333
510 1 0.291667 0.583333 0.166667
512 1 0.25 0.583333 0.25
529 1 0.25 0.666667 0
530 1 0.291667 0.75 0
531 1 0.291667 0.666667 0.0833333
532 1 0.25 0.75 0.0833333
533 1 0.25 0.666667 0.166667
534 1 0.291667 0.75 0.166667
535 1 0.291667 0.666667 0.25
536 1 0.25 0.75 0.25
650 1 0.375 0.583333 0
652 1 0.333333 0.583333 0.0833333
654 1 0.375 0.583333 0.166667
656 1 0.333333 0.583333 0.25
673 1 0.333333 0.666667 0
674 1 0.375 0.75 0
675 1 0.375 0.666667 0.0833333
676 1 0.333333 0.75 0.0833333
677 1 0.333333 0.666667 0.166667
678 1 0.375 0.75 0.166667
679 1 0.375 0.666667 0.25
680 1 0.333333 0.75 0.25
796 1 0.416667 0.583333 0.0833333
800 1 0.416667 0.583333 0.25
817 1 0.416667 0.666667 0
820 1 0.416667 0.75 0.0833333
821 1 0.416667 0.666667 0.166667
824 1 0.416667 0.75 0.25
794 1 0.458333 0.583333 0
798 1 0.458333 0.583333 0.166667
818 1 0.458333 0.75 0
819 1 0.458333 0.666667 0.0833333
822 1 0.458333 0.75 0.166667
823 1 0.458333 0.666667 0.25
121 1 0 0.833333 0
122 1 0.0416667 0.916667 0
123 1 0.0416667 0.833333 0.0833333
124 1 0 0.916667 0.0833333
125 1 0 0.833333 0.166667
126 1 0.0416667 0.916667 0.166667
127 1 0.0416667 0.833333 0.25
128 1 0 0.916667 0.25
265 1 0.0833333 0.833333 0
268 1 0.0833333 0.916667 0.0833333
269 1 0.0833333 0.833333 0.166667
272 1 0.0833333 0.916667 0.25
266 1 0.125 0.916667 0
267 1 0.125 0.833333 0.0833333
270 1 0.125 0.916667 0.166667
271 1 0.125 0.833333 0.25
409 1 0.166667 0.833333 0
410 1 0.208333 0.916667 0
411 1 0.208333 0.833333 0.0833333
412 1 0.166667 0.916667 0.0833333
413 1 0.166667 0.833333 0.166667
414 1 0.208333 0.916667 0.166667
415 1 0.208333 0.833333 0.25
416 1 0.166667 0.916667 0.25
553 1 0.25 0.833333 0
554 1 0.291667 0.916667 0
555 1 0.291667 0.833333 0.0833333
556 1 0.25 0.916667 0.0833333
557 1 0.25 0.833333 0.166667
558 1 0.291667 0.916667 0.166667
559 1 0.291667 0.833333 0.25
560 1 0.25 0.916667 0.25
697 1 0.333333 0.833333 0
698 1 0.375 0.916667 0
699 1 0.375 0.833333 0.0833333
700 1 0.333333 0.916667 0.0833333
701 1 0.333333 0.833333 0.166667
702 1 0.375 0.916667 0.166667
703 1 0.375 0.833333 0.25
704 1 0.333333 0.916667 0.25
841 1 0.416667 0.833333 0
844 1 0.416667 0.916667 0.0833333
845 1 0.416667 0.833333 0.166667
848 1 0.416667 0.916667 0.25
842 1 0.458333 0.916667 0
843 1 0.458333 0.833333 0.0833333
846 1 0.458333 0.916667 0.166667
847 1 0.458333 0.833333 0.25
9 1 0 0 0.333333
10 1 0.0416667 0.0833333 0.333333
11 1 0.0416667 0 0.416667
12 1 0 0.0833333 0.416667
13 1 0 0 0.5
14 1 0.0416667 0.0833333 0.5
33 1 0 0.166667 0.333333
34 1 0.0416667 0.25 0.333333
35 1 0.0416667 0.166667 0.416667
36 1 0 0.25 0.416667
37 1 0 0.166667 0.5
38 1 0.0416667 0.25 0.5
153 1 0.0833333 0 0.333333
156 1 0.0833333 0.0833333 0.416667
157 1 0.0833333 0 0.5
177 1 0.0833333 0.166667 0.333333
180 1 0.0833333 0.25 0.416667
181 1 0.0833333 0.166667 0.5
154 1 0.125 0.0833333 0.333333
155 1 0.125 0 0.416667
158 1 0.125 0.0833333 0.5
178 1 0.125 0.25 0.333333
179 1 0.125 0.166667 0.416667
182 1 0.125 0.25 0.5
297 1 0.166667 0 0.333333
298 1 0.208333 0.0833333 0.333333
299 1 0.208333 0 0.416667
300 1 0.166667 0.0833333 0.416667
301 1 0.166667 0 0.5
302 1 0.208333 0.0833333 0.5
321 1 0.166667 0.166667 0.333333
322 1 0.208333 0.25 0.333333
323 1 0.208333 0.166667 0.416667
324 1 0.166667 0.25 0.416667
325 1 0.166667 0.166667 0.5
326 1 0.208333 0.25 0.5
441 1 0.25 0 0.333333
442 1 0.291667 0.0833333 0.333333
443 1 0.291667 0 0.416667
444 1 0.25 0.0833333 0.416667
445 1 0.25 0 0.5
446 1 0.291667 0.0833333 0.5
465 1 0.25 0.166667 0.333333
466 1 0.291667 0.25 0.333333
467 1 0.291667 0.166667 0.416667
468 1 0.25 0.25 0.416667
469 1 0.25 0.166667 0.5
470 1 0.291667 0.25 0.5
585 1 0.333333 0 0.333333
586 1 0.375 0.0833333 0.333333
587 1 0.375 0 0.416667
588 1 0.333333 0.0833333 0.416667
589 1 0.333333 0 0.5
590 1 0.375 0.0833333 0.5
609 1 0.333333 0.166667 0.333333
610 1 0.375 0.25 0.333333
611 1 0.375 0.166667 0.416667
612 1 0.333333 0.25 0.416667
613 1 0.333333 0.166667 0.5
614 1 0.375 0.25 0.5
729 1 0.416667 0 0.333333
732 1 0.416667 0.0833333 0.416667
733 1 0.416667 0 0.5
753 1 0.416667 0.166667 0.333333
756 1 0.416667 0.25 0.416667
757 1 0.416667 0.166667 0.5
730 1 0.458333 0.0833333 0.333333
731 1 0.458333 0 0.416667
734 1 0.458333 0.0833333 0.5
754 1 0.458333 0.25 0.333333
755 1 0.458333 0.166667 0.416667
758 1 0.458333 0.25 0.5
57 1 0 0.333333 0.333333
58 1 0.0416667 0.416667 0.333333
59 1 0.0416667 0.333333 0.416667
60 1 0 0.416667 0.416667
61 1 0 0.333333 0.5
62 1 0.0416667 0.416667 0.5
81 1 0 0.5 0.333333
83 1 0.0416667 0.5 0.416667
85 1 0 0.5 0.5
201 1 0.0833333 0.333333 0.333333
204 1 0.0833333 0.416667 0.416667
205 1 0.0833333 0.333333 0.5
225 1 0.0833333 0.5 0.333333
229 1 0.0833333 0.5 0.5
202 1 0.125 0.416667 0.333333
203 1 0.125 0.333333 0.416667
206 1 0.125 0.416667 0.5
227 1 0.125 0.5 0.416667
345 1 0.166667 0.333333 0.333333
346 1 0.208333 0.416667 0.333333
347 1 0.208333 0.333333 0.416667
348 1 0.166667 0.416667 0.416667
349 1 0.166667 0.333333 0.5
350 1 0.208333 0.416667 0.5
369 1 0.166667 0.5 0.333333
371 1 0.208333 0.5 0.416667
373 1 0.166667 0.5 0.5
489 1 0.25 0.333333 0.333333
490 1 0.291667 0.416667 0.333333
491 1 0.291667 0.333333 0.416667
492 1 0.25 0.416667 0.416667
493 1 0.25 0.333333 0.5
494 1 0.291667 0.416667 0.5
513 1 0.25 0.5 0.333333
515 1 0.291667 0.5 0.416667
517 1 0.25 0.5 0.5
633 1 0.333333 0.333333 0.333333
634 1 0.375 0.416667 0.333333
635 1 0.375 0.333333 0.416667
636 1 0.333333 0.416667 0.416667
637 1 0.333333 0.333333 0.5
638 1 0.375 0.416667 0.5
657 1 0.333333 0.5 0.333333
659 1 0.375 0.5 0.416667
661 1 0.333333 0.5 0.5
777 1 0.416667 0.333333 0.333333
780 1 0.416667 0.416667 0.416667
781 1 0.416667 0.333333 0.5
801 1 0.416667 0.5 0.333333
805 1 0.416667 0.5 0.5
778 1 0.458333 0.416667 0.333333
779 1 0.458333 0.333333 0.416667
782 1 0.458333 0.416667 0.5
803 1 0.458333 0.5 0.416667
82 1 0.0416667 0.583333 0.333333
84 1 0 0.583333 0.416667
86 1 0.0416667 0.583333 0.5
105 1 0 0.666667 0.333333
106 1 0.0416667 0.75 0.333333
107 1 0.0416667 0.666667 0.416667
108 1 0 0.75 0.416667
109 1 0 0.666667 0.5
110 1 0.0416667 0.75 0.5
228 1 0.0833333 0.583333 0.416667
249 1 0.0833333 0.666667 0.333333
252 1 0.0833333 0.75 0.416667
253 1 0.0833333 0.666667 0.5
226 1 0.125 0.583333 0.333333
230 1 0.125 0.583333 0.5
250 1 0.125 0.75 0.333333
251 1 0.125 0.666667 0.416667
254 1 0.125 0.75 0.5
370 1 0.208333 0.583333 0.333333
372 1 0.166667 0.583333 0.416667
374 1 0.208333 0.583333 0.5
393 1 0.166667 0.666667 0.333333
394 1 0.208333 0.75 0.333333
395 1 0.208333 0.666667 0.416667
396 1 0.166667 0.75 0.416667
397 1 0.166667 0.666667 0.5
398 1 0.208333 0.75 0.5
514 1 0.291667 0.583333 0.333333
516 1 0.25 0.583333 0.416667
518 1 0.291667 0.583333 0.5
537 1 0.25 0.666667 0.333333
538 1 0.291667 0.75 0.333333
539 1 0.291667 0.666667 0.416667
540 1 0.25 0.75 0.416667
541 1 0.25 0.666667 0.5
542 1 0.291667 0.75 0.5
658 1 0.375 0.583333 0.333333
660 1 0.333333 0.583333 0.416667
662 1 0.375 0.583333 0.5
681 1 0.333333 0.666667 0.333333
682 1 0.375 0.75 0.333333
683 1 0.375 0.666667 0.416667
684 1 0.333333 0.75 0.416667
685 1 0.333333 0.666667 0.5
686 1 0.375 0.75 0.5
804 1 0.416667 0.583333 0.416667
825 1 0.416667 0.666667 0.333333
828 1 0.416667 0.75 0.416667
829 1 0.416667 0.666667 0.5
802 1 0.458333 0.583333 0.333333
806 1 0.458333 0.583333 0.5
826 1 0.458333 0.75 0.333333
827 1 0.458333 0.666667 0.416667
830 1 0.458333 0.75 0.5
129 1 0 0.833333 0.333333
130 1 0.0416667 0.916667 0.333333
131 1 0.0416667 0.833333 0.416667
132 1 0 0.916667 0.416667
133 1 0 0.833333 0.5
134 1 0.0416667 0.916667 0.5
273 1 0.0833333 0.833333 0.333333
276 1 0.0833333 0.916667 0.416667
277 1 0.0833333 0.833333 0.5
274 1 0.125 0.916667 0.333333
275 1 0.125 0.833333 0.416667
278 1 0.125 0.916667 0.5
417 1 0.166667 0.833333 0.333333
418 1 0.208333 0.916667 0.333333
419 1 0.208333 0.833333 0.416667
420 1 0.166667 0.916667 0.416667
421 1 0.166667 0.833333 0.5
422 1 0.208333 0.916667 0.5
561 1 0.25 0.833333 0.333333
562 1 0.291667 0.916667 0.333333
563 1 0.291667 0.833333 0.416667
564 1 0.25 0.916667 0.416667
565 1 0.25 0.833333 0.5
566 1 0.291667 0.916667 0.5
705 1 0.333333 0.833333 0.333333
706 1 0.375 0.916667 0.333333
707 1 0.375 0.833333 0.416667
708 1 0.333333 0.916667 0.416667
709 1 0.333333 0.833333 0.5
710 1 0.375 0.916667 0.5
849 1 0.416667 0.833333 0.333333
852 1 0.416667 0.916667 0.416667
853 1 0.416667 0.833333 0.5
850 1 0.458333 0.916667 0.333333
851 1 0.458333 0.833333 0.416667
854 1 0.458333 0.916667 0.5
15 1 0.0416667 0 0.583333
16 1 0 0.0833333 0.583333
17 1 0 0 0.666667
18 1 0.0416667 0.0833333 0.666667
19 1 0.0416667 0 0.75
20 1 0 0.0833333 0.75
39 1 0.0416667 0.166667 0.583333
40 1 0 0.25 0.583333
41 1 0 0.166667 0.666667
42 1 0.0416667 0.25 0.666667
43 1 0.0416667 0.166667 0.75
44 1 0 0.25 0.75
160 1 0.0833333 0.0833333 0.583333
161 1 0.0833333 0 0.666667
164 1 0.0833333 0.0833333 0.75
184 1 0.0833333 0.25 0.583333
185 1 0.0833333 0.166667 0.666667
188 1 0.0833333 0.25 0.75
159 1 0.125 0 0.583333
162 1 0.125 0.0833333 0.666667
163 1 0.125 0 0.75
183 1 0.125 0.166667 0.583333
186 1 0.125 0.25 0.666667
187 1 0.125 0.166667 0.75
303 1 0.208333 0 0.583333
304 1 0.166667 0.0833333 0.583333
305 1 0.166667 0 0.666667
306 1 0.208333 0.0833333 0.666667
307 1 0.208333 0 0.75
308 1 0.166667 0.0833333 0.75
327 1 0.208333 0.166667 0.583333
328 1 0.166667 0.25 0.583333
329 1 0.166667 0.166667 0.666667
330 1 0.208333 0.25 0.666667
331 1 0.208333 0.166667 0.75
332 1 0.166667 0.25 0.75
447 1 0.291667 0 0.583333
448 1 0.25 0.0833333 0.583333
449 1 0.25 0 0.666667
450 1 0.291667 0.0833333 0.666667
451 1 0.291667 0 0.75
452 1 0.25 0.0833333 0.75
471 1 0.291667 0.166667 0.583333
472 1 0.25 0.25 0.583333
473 1 0.25 0.166667 0.666667
474 1 0.291667 0.25 0.666667
475 1 0.291667 0.166667 0.75
476 1 0.25 0.25 0.75
591 1 0.375 0 0.583333
592 1 0.333333 0.0833333 0.583333
593 1 0.333333 0 0.666667
594 1 0.375 0.0833333 0.666667
595 1 0.375 0 0.75
596 1 0.333333 0.0833333 0.75
615 1 0.375 0.166667 0.583333
616 1 0.333333 0.25 0.583333
617 1 0.333333 0.166667 0.666667
618 1 0.375 0.25 0.666667
619 1 0.375 0.166667 0.75
620 1 0.333333 0.25 0.75
736 1 0.416667 0.0833333 0.583333
737 1 0.416667 0 0.666667
740 1 0.416667 0.0833333 0.75
760 1 0.416667 0.25 0.583333
761 1 0.416667 0.166667 0.666667
764 1 0.416667 0.25 0.75
735 1 0.458333 0 0.583333
738 1 0.458333 0.0833333 0.666667
739 1 0.458333 0 0.75
759 1 0.458333 0.166667 0.583333
762 1 0.458333 0.25 0.666667
763 1 0.458333 0.166667 0.75
63 1 0.0416667 0.333333 0.583333
64 1 0 0.416667 0.583333
65 1 0 0.333333 0.666667
66 1 0.0416667 0.416667 0.666667
67 1 0.0416667 0.333333 0.75
68 1 0 0.416667 0.75
87 1 0.0416667 0.5 0.583333
89 1 0 0.5 0.666667
91 1 0.0416667 0.5 0.75
208 1 0.0833333 0.416667 0.583333
209 1 0.0833333 0.333333 0.666667
212 1 0.0833333 0.416667 0.75
233 1 0.0833333 0.5 0.666667
207 1 0.125 0.333333 0.583333
210 1 0.125 0.416667 0.666667
211 1 0.125 0.333333 0.75
231 1 0.125 0.5 0.583333
235 1 0.125 0.5 0.75
351 1 0.208333 0.333333 0.583333
352 1 0.166667 0.416667 0.583333
353 1 0.166667 0.333333 0.666667
354 1 0.208333 0.416667 0.666667
355 1 0.208333 0.333333 0.75
356 1 0.166667 0.416667 0.75
375 1 0.208333 0.5 0.583333
377 1 0.166667 0.5 0.666667
379 1 0.208333 0.5 0.75
495 1 0.291667 0.333333 0.583333
496 1 0.25 0.416667 0.583333
497 1 0.25 0.333333 0.666667
498 1 0.291667 0.416667 0.666667
499 1 0.291667 0.333333 0.75
500 1 0.25 0.416667 0.75
519 1 0.291667 0.5 0.583333
521 1 0.25 0.5 0.666667
523 1 0.291667 0.5 0.75
639 1 0.375 0.333333 0.583333
640 1 0.333333 0.416667 0.583333
641 1 0.333333 0.333333 0.666667
642 1 0.375 0.416667 0.666667
643 1 0.375 0.333333 0.75
644 1 0.333333 0.416667 0.75
663 1 0.375 0.5 0.583333
665 1 0.333333 0.5 0.666667
667 1 0.375 0.5 0.75
784 1 0.416667 0.416667 0.583333
785 1 0.416667 0.333333 0.666667
788 1 0.416667 0.416667 0.75
809 1 0.416667 0.5 0.666667
783 1 0.458333 0.333333 0.583333
786 1 0.458333 0.416667 0.666667
787 1 0.458333 0.333333 0.75
807 1 0.458333 0.5 0.583333
811 1 0.458333 0.5 0.75
88 1 0 0.583333 0.583333
90 1 0.0416667 0.583333 0.666667
92 1 0 0.583333 0.75
111 1 0.0416667 0.666667 0.583333
112 1 0 0.75 0.583333
113 1 0 0.666667 0.666667
114 1 0.0416667 0.75 0.666667
115 1 0.0416667 0.666667 0.75
116 1 0 0.75 0.75
232 1 0.0833333 0.583333 0.583333
236 1 0.0833333 0.583333 0.75
256 1 0.0833333 0.75 0.583333
257 1 0.0833333 0.666667 0.666667
260 1 0.0833333 0.75 0.75
234 1 0.125 0.583333 0.666667
255 1 0.125 0.666667 0.583333
258 1 0.125 0.75 0.666667
259 1 0.125 0.666667 0.75
376 1 0.166667 0.583333 0.583333
378 1 0.208333 0.583333 0.666667
380 1 0.166667 0.583333 0.75
399 1 0.208333 0.666667 0.583333
400 1 0.166667 0.75 0.583333
401 1 0.166667 0.666667 0.666667
402 1 0.208333 0.75 0.666667
403 1 0.208333 0.666667 0.75
404 1 0.166667 0.75 0.75
520 1 0.25 0.583333 0.583333
522 1 0.291667 0.583333 0.666667
524 1 0.25 0.583333 0.75
543 1 0.291667 0.666667 0.583333
544 1 0.25 0.75 0.583333
545 1 0.25 0.666667 0.666667
546 1 0.291667 0.75 0.666667
547 1 0.291667 0.666667 0.75
548 1 0.25 0.75 0.75
664 1 0.333333 0.583333 0.583333
666 1 0.375 0.583333 0.666667
668 1 0.333333 0.583333 0.75
687 1 0.375 0.666667 0.583333
688 1 0.333333 0.75 0.583333
689 1 0.333333 0.666667 0.666667
690 1 0.375 0.75 0.666667
691 1 0.375 0.666667 0.75
692 1 0.333333 0.75 0.75
808 1 0.416667 0.583333 0.583333
812 1 0.416667 0.583333 0.75
832 1 0.416667 0.75 0.583333
833 1 0.416667 0.666667 0.666667
836 1 0.416667 0.75 0.75
810 1 0.458333 0.583333 0.666667
831 1 0.458333 0.666667 0.583333
834 1 0.458333 0.75 0.666667
835 1 0.458333 0.666667 0.75
135 1 0.0416667 0.833333 0.583333
136 1 0 0.916667 0.583333
137 1 0 0.833333 0.666667
138 1 0.0416667 0.916667 0.666667
139 1 0.0416667 0.833333 0.75
140 1 0 0.916667 0.75
280 1 0.0833333 0.916667 0.583333
281 1 0.0833333 0.833333 0.666667
284 1 0.0833333 0.916667 0.75
279 1 0.125 0.833333 0.583333
282 1 0.125 0.916667 0.666667
283 1 0.125 0.833333 0.75
423 1 0.208333 0.833333 0.583333
424 1 0.166667 0.916667 0.583333
425 1 0.166667 0.833333 0.666667
426 1 0.208333 0.916667 0.666667
427 1 0.208333 0.833333 0.75
428 1 0.166667 0.916667 0.75
567 1 0.291667 0.833333 0.583333
568 1 0.25 0.916667 0.583333
569 1 0.25 0.833333 0.666667
570 1 0.291667 0.916667 0.666667
571 1 0.291667 0.833333 0.75
572 1 0.25 0.916667 0.75
711 1 0.375 0.833333 0.583333
712 1 0.333333 0.916667 0.583333
713 1 0.333333 0.833333 0.666667
714 1 0.375 0.916667 0.666667
715 1 0.375 0.833333 0.75
716 1 0.333333 0.916667 0.75
856 1 0.416667 0.916667 0.583333
857 1 0.416667 0.833333 0.666667
860 1 0.416667 0.916667 0.75
855 1 0.458333 0.833333 0.583333
858 1 0.458333 0.916667 0.666667
859 1 0.458333 0.833333 0.75
21 1 0 0 0.833333
22 1 0.0416667 0.0833333 0.833333
23 1 0.0416667 0 0.916667
24 1 0 0.0833333 0.916667
45 1 0 0.166667 0.833333
46 1 0.0416667 0.25 0.833333
47 1 0.0416667 0.166667 0.916667
48 1 0 0.25 0.916667
165 1 0.0833333 0 0.833333
168 1 0.0833333 0.0833333 0.916667
189 1 0.0833333 0.166667 0.833333
192 1 0.0833333 0.25 0.916667
166 1 0.125 0.0833333 0.833333
167 1 0.125 0 0.916667
190 1 0.125 0.25 0.833333
191 1 0.125 0.166667 0.916667
309 1 0.166667 0 0.833333
310 1 0.208333 0.0833333 0.833333
311 1 0.208333 0 0.916667
312 1 0.166667 0.0833333 0.916667
333 1 0.166667 0.166667 0.833333
334 1 0.208333 0.25 0.833333
335 1 0.208333 0.166667 0.916667
336 1 0.166667 0.25 0.916667
453 1 0.25 0 0.833333
454 1 0.291667 0.0833333 0.833333
455 1 0.291667 0 0.916667
456 1 0.25 0.0833333 0.916667
477 1 0.25 0.166667 0.833333
478 1 0.291667 0.25 0.833333
479 1 0.291667 0.166667 0.916667
480 1 0.25 0.25 0.916667
597 1 0.333333 0 0.833333
598 1 0.375 0.0833333 0.833333
599 1 0.375 0 0.916667
600 1 0.333333 0.0833333 0.916667
621 1 0.333333 0.166667 0.833333
622 1 0.375 0.25 0.833333
623 1 0.375 0.166667 0.916667
624 1 0.333333 0.25 0.916667
741 1 0.416667 0 0.833333
744 1 0.416667 0.0833333 0.916667
765 1 0.416667 0.166667 0.833333
768 1 0.416667 0.25 0.916667
742 1 0.458333 0.0833333 0.833333
743 1 0.458333 0 0.916667
766 1 0.458333 0.25 0.833333
767 1 0.458333 0.166667 0.916667
69 1 0 0.333333 0.833333
70 1 0.0416667 0.416667 0.833333
71 1 0.0416667 0.333333 0.916667
72 1 0 0.416667 0.916667
93 1 0 0.5 0.833333
95 1 0.0416667 0.5 0.916667
213 1 0.0833333 0.333333 0.833333
216 1 0.0833333 0.416667 0.916667
237 1 0.0833333 0.5 0.833333
214 1 0.125 0.416667 0.833333
215 1 0.125 0.333333 0.916667
239 1 0.125 0.5 0.916667
357 1 0.166667 0.333333 0.833333
358 1 0.208333 0.416667 0.833333
359 1 0.208333 0.333333 0.916667
360 1 0.166667 0.416667 0.916667
381 1 0.166667 0.5 0.833333
383 1 0.208333 0.5 0.916667
501 1 0.25 0.333333 0.833333
502 1 0.291667 0.416667 0.833333
503 1 0.291667 0.333333 0.916667
504 1 0.25 0.416667 0.916667
525 1 0.25 0.5 0.833333
527 1 0.291667 0.5 0.916667
645 1 0.333333 0.333333 0.833333
646 1 0.375 0.416667 0.833333
647 1 0.375 0.333333 0.916667
648 1 0.333333 0.416667 0.916667
669 1 0.333333 0.5 0.833333
671 1 0.375 0.5 0.916667
789 1 0.416667 0.333333 0.833333
792 1 0.416667 0.416667 0.916667
813 1 0.416667 0.5 0.833333
790 1 0.458333 0.416667 0.833333
791 1 0.458333 0.333333 0.916667
815 1 0.458333 0.5 0.916667
94 1 0.0416667 0.583333 0.833333
96 1 0 0.583333 0.916667
117 1 0 0.666667 0.833333
118 1 0.0416667 0.75 0.833333
119 1 0.0416667 0.666667 0.916667
120 1 0 0.75 0.916667
240 1 0.0833333 0.583333 0.916667
261 1 0.0833333 0.666667 0.833333
264 1 0.0833333 0.75 0.916667
238 1 0.125 0.583333 0.833333
262 1 0.125 0.75 0.833333
263 1 0.125 0.666667 0.916667
382 1 0.208333 0.583333 0.833333
384 1 0.166667 0.583333 0.916667
405 1 0.166667 0.666667 0.833333
406 1 0.208333 0.75 0.833333
407 1 0.208333 0.666667 0.916667
408 1 0.166667 0.75 0.916667
526 1 0.291667 0.583333 0.833333
528 1 0.25 0.583333 0.916667
549 1 0.25 0.666667 0.833333
550 1 0.291667 0.75 0.833333
551 1 0.291667 0.666667 0.916667
552 1 0.25 0.75 0.916667
670 1 0.375 0.583333 0.833333
672 1 0.333333 0.583333 0.916667
693 1 0.333333 0.666667 0.833333
694 1 0.375 0.75 0.833333
695 1 0.375 0.666667 0.916667
696 1 0.333333 0.75 0.916667
816 1 0.416667 0.583333 0.916667
837 1 0.416667 0.666667 0.833333
840 1 0.416667 0.75 0.916667
814 1 0.458333 0.583333 0.833333
838 1 0.458333 0.75 0.833333
839 1 0.458333 0.666667 0.916667
141 1 0 0.833333 0.833333
142 1 0.0416667 0.916667 0.833333
143 1 0.0416667 0.833333 0.916667
144 1 0 0.916667 0.916667
285 1 0.0833333 0.833333 0.833333
288 1 0.0833333 0.916667 0.916667
286 1 0.125 0.916667 0.833333
287 1 0.125 0.833333 0.916667
429 1 0.166667 0.833333 0.833333
430 1 0.208333 0.916667 0.833333
431 1 0.208333 0.833333 0.916667
432 1 0.166667 0.916667 0.916667
573 1 0.25 0.833333 0.833333
574 1 0.291667 0.916667 0.833333
575 1 0.291667 0.833333 0.916667
576 1 0.25 0.916667 0.916667
717 1 0.333333 0.833333 0.833333
718 1 0.375 0.916667 0.833333
719 1 0.375 0.833333 0.916667
720 1 0.333333 0.916667 0.916667
861 1 0.416667 0.833333 0.833333
864 1 0.416667 0.916667 0.916667
862 1 0.458333 0.916667 0.833333
863 1 0.458333 0.833333 0.916667
ITEM: TIMESTEP
5000
ITEM: NUMBER OF ATOMS
864
ITEM: BOX BOUNDS pp pp pp
0.0000000000000000e+00 1.5119052598738476e+01
0.0000000000000000e+00 7.5595262993692378e+00
0.0000000000000000e+00 7.5595262993692378e+00
ITEM: ATOMS id type xs ys zs
148 1 0.988748 0.0860933 0.103182
172 1 0.00849632 0.208523 0.125711
173 1 0.980452 0.134833 0.246522
150 1 0.0444856 0.111227 0.183359
171 1 0.0673625 0.139856 0.0605805
174 1 0.0656522 0.255734 0.180798
147 1 0.0412722 0.0288798 0.0250712
292 1 0.132451 0.0786983 0.0657965
293 1 0.115511 0.0275677 0.188698
294 1 0.17662 0.0882107 0.164016
315 1 0.195527 0.150027 0.0545727
317 1 0.10772 0.155363 0.166156
318 1 0.213539 0.233841 0.17994
316 1 0.157663 0.229335 0.123084
319 1 0.169213 0.170831 0.259294
434 1 0.320582 0.0976939 0.0235449
436 1 0.252528 0.0476598 0.0562426
438 1 0.298308 0.0765065 0.182583
457 1 0.281572 0.1904 0.0104525
459 1 0.316934 0.179642 0.116382
461 1 0.250966 0.146881 0.130786
440 1 0.241237 0.10298 0.249103
464 1 0.286845 0.206885 0.228077
463 1 0.354807 0.153561 0.230863
458 1 0.364725 0.217826 0.0407803
580 1 0.373323 0.104117 0.105118
582 1 0.442045 0.0695801 0.13279
601 1 0.419072 0.147742 0.0213333
605 1 0.414518 0.188108 0.164185
584 1 0.412651 0.0819867 0.252383
577 1 0.410973 0.0119707 0.029413
578 1 0.469752 0.0742389 0.995192
583 1 0.474664 0.0168167 0.243655
603 1 0.478064 0.173749 0.0880812
607 1 0.489535 0.145746 0.214103
724 1 0.513447 0.0591249 0.119819
728 1 0.548794 0.0369838 0.233897
745 1 0.528577 0.146238 0.00445977
749 1 0.55858 0.156242 0.183255
722 1 0.575516 0.077389 0.0672948
726 1 0.612246 0.0578932 0.179685
746 1 0.588502 0.224937 0.0120458
747 1 0.627645 0.164496 0.100928
751 1 0.654295 0.174478 0.228563
727 1 0.673562 0.0161791 0.236468
5 1 0.800552 0.0189229 0.130048
28 1 0.81569 0.253771 0.0616474
29 1 0.815823 0.154901 0.163258
4 1 0.856877 0.105188 0.0366811
149 1 0.94633 0.0308861 0.185893
3 1 0.92434 0.0545574 0.0636087
6 1 0.866567 0.0552633 0.155362
26 1 0.887927 0.226198 0.0220948
27 1 0.940785 0.188656 0.100591
30 1 0.877347 0.225648 0.156844
31 1 0.908865 0.131947 0.223723
170 1 0.0700309 0.259215 0.0139304
193 1 0.989033 0.298545 0.0330381
196 1 0.0147178 0.454621 0.0560541
197 1 0.981946 0.342893 0.160853
195 1 0.0400128 0.340025 0.0956479
198 1 0.0761902 0.435118 0.14937
176 1 0.00578244 0.255453 0.250129
199 1 0.0377237 0.369731 0.233218
337 1 0.159901 0.287263 0.00102192
339 1 0.204388 0.334752 0.0972299
340 1 0.153121 0.418769 0.0265302
341 1 0.116173 0.329167 0.104629
342 1 0.17638 0.443629 0.142557
343 1 0.177876 0.338729 0.21743
344 1 0.116997 0.391117 0.242907
320 1 0.125657 0.26274 0.233587
314 1 0.22614 0.250674 0.0100888
363 1 0.223147 0.477265 0.050772
462 1 0.345151 0.272772 0.17266
460 1 0.274594 0.273796 0.11067
483 1 0.331287 0.3299 0.0512197
484 1 0.274 0.397932 0.0841438
485 1 0.24923 0.336297 0.204941
486 1 0.33038 0.39745 0.165117
509 1 0.242968 0.468266 0.177716
507 1 0.359656 0.462618 0.0632129
511 1 0.340868 0.513279 0.263061
604 1 0.430267 0.267183 0.0649978
628 1 0.426986 0.436772 0.0634655
629 1 0.393613 0.352193 0.133815
630 1 0.460958 0.414303 0.170933
653 1 0.389138 0.482786 0.181209
606 1 0.471817 0.280351 0.172166
627 1 0.484133 0.33772 0.0546395
651 1 0.511664 0.462165 0.0610317
655 1 0.515663 0.471074 0.232254
748 1 0.533736 0.24576 0.102271
773 1 0.525872 0.369809 0.151911
797 1 0.568504 0.484441 0.146663
752 1 0.530529 0.270299 0.253297
772 1 0.580486 0.371476 0.0703485
750 1 0.594845 0.27789 0.168071
774 1 0.62743 0.407503 0.170793
795 1 0.647035 0.436786 0.0411825
771 1 0.64508 0.298527 0.0587183
793 1 0.585536 0.493361 -0.000167939
52 1 0.800128 0.472474 0.0879896
32 1 0.816286 0.278339 0.2249
53 1 0.855828 0.347759 0.1141
77 1 0.848229 0.473996 0.185842
50 1 0.942285 0.44791 0.0580831
51 1 0.927221 0.316522 0.0900929
54 1 0.912211 0.427868 0.172636
221 1 0.9789 0.470499 0.165915
75 1 0.872238 0.470878 0.0612965
34 1 0.93716 0.266795 0.229509
219 1 0.0747227 0.520113 0.0548896
220 1 0.976234 0.563396 0.0569651
245 1 0.998221 0.601181 0.183358
222 1 0.0611436 0.550006 0.206683
243 1 0.0397716 0.625453 0.0877328
246 1 0.0415626 0.73056 0.156624
242 1 0.0511743 0.740722 0.0186717
365 1 0.129498 0.5134 0.194865
364 1 0.140384 0.543528 0.0454513
366 1 0.1914 0.565988 0.131502
387 1 0.154894 0.670107 0.0611246
388 1 0.105414 0.754093 0.0904101
389 1 0.103107 0.624418 0.130715
391 1 0.160652 0.64233 0.213478
392 1 0.110047 0.73248 0.220932
367 1 0.19388 0.50793 0.253484
506 1 0.341947 0.602907 0.0586853
508 1 0.258277 0.581685 0.0917361
510 1 0.309801 0.514023 0.141184
529 1 0.233689 0.694569 0.000483144
531 1 0.291194 0.690353 0.0741166
533 1 0.217988 0.689035 0.127251
535 1 0.311071 0.626375 0.210376
512 1 0.238694 0.599443 0.214798
649 1 0.45801 0.543205 0.00873169
652 1 0.404309 0.566267 0.0804497
656 1 0.4193 0.606444 0.208137
673 1 0.40424 0.687993 0.0255543
675 1 0.45593 0.656844 0.0951104
677 1 0.371648 0.669553 0.143973
654 1 0.472613 0.542407 0.153203
679 1 0.470069 0.69999 0.215747
650 1 0.515232 0.598296 0.0583184
796 1 0.579989 0.601828 0.0876883
800 1 0.540037 0.598361 0.201692
817 1 0.533219 0.741252 0.014784