ITEM: TIMESTEP
0
ITEM: NUMBER OF ATOMS
864
ITEM: BOX BOUNDS pp pp pp
0.0000000000000000e+00 1.5119052598738476e+01
0.0000000000000000e+00 7.5595262993692378e+00
0.0000000000000000e+00 7.5595262993692378e+00
ITEM: ATOMS id type xs ys zs
1 1 0 0 0
2 1 0.0416667 0.0833333 0
3 1 0.0416667 0 0.0833333
4 1 0 0.0833333 0.0833333
5 1 0 0 0.166667
6 1 0.0416667 0.0833333 0.166667
7 1 0.0416667 0 0.25
8 1 0 0.0833333 0.25
9 1 0 0 0.333333
10 1 0.0416667 0.0833333 0.333333
11 1 0.0416667 0 0.416667
12 1 0 0.0833333 0.416667
25 1 0 0.166667 0
26 1 0.0416667 0.25 0
27 1 0.0416667 0.166667 0.0833333
28 1 0 0.25 0.0833333
29 1 0 0.166667 0.166667
30 1 0.0416667 0.25 0.166667
31 1 0.0416667 0.166667 0.25
32 1 0 0.25 0.25
33 1 0 0.166667 0.333333
34 1 0.0416667 0.2Per MPI rank memory allocation (min/avg/max) = 2.818 | 3.497 | 4.176 Mbytes
Step Temp E_pair E_mol TotEng Press 
       0   0.34013118     38.17605            0    38.685657     259.3215 
 1000000    1.0230476   -5.9754118            0   -4.4426166    7.8196044 
Loop time of 230.003 on 8 procs for 1000000 steps with 864 atoms

Performance: 75129.380 tau/day, 4347.765 timesteps/s
89.0% CPU use with 8 MPI tasks x no OpenMP threads

MPI task timing breakdown:
Section |  min time  |  avg time  |  max time  |%varavg| %total
---------------------------------------------------------------
Pair    | 117.67     | 130.82     | 142.74     |  79.5 | 56.88
Neigh   | 1.7813     | 1.8308     | 1.8847     |   2.6 |  0.80
Comm    | 73.148     | 84.952     | 97.965     |  97.5 | 36.93
Output  | 0.0087392  | 0.011032   | 0.012754   |   1.2 |  0.00
Modify  | 3.9572     | 4.0945     | 4.158      |   3.4 |  1.78
Other   |            | 8.293      |            |       |  3.61

Nlocal:    108 ave 113 max 105 min
Histogram: 2 1 0 2 0 1 1 0 0 1
Nghost:    1855.5 ave 1869 max 1845 min
Histogram: 3 0 0 1 0 1 0 1 1 1
Neighs:    12397.1 ave 13461 max 11244 min
Histogram: 2 0 1 0 0 2 0 1 0 2

Total # of neighbors = 99177
Ave neighs/atom = 114.788
Neighbor list builds = 5322
Dangerous builds = 0
Total wall time: 0:03:50
333 0.333333 0.333333
202 1 0.125 0.416667 0.333333
203 1 0.125 0.333333 0.416667
204 1 0.0833333 0.416667 0.416667
289 1 0.166667 0 0
290 1 0.208333 0.0833333 0
291 1 0.208333 0 0.0833333
292 1 0.166667 0.0833333 0.0833333
293 1 0.166667 0 0.166667
294 1 0.208333 0.0833333 0.166667
295 1 0.208333 0 0.25
296 1 0.166667 0.0833333 0.25
297 1 0.166667 0 0.333333
298 1 0.208333 0.0833333 0.333333
299 1 0.208333 0 0.416667
300 1 0.166667 0.0833333 0.416667
313 1 0.166667 0.166667 0
314 1 0.208333 0.25 0
315 1 0.208333 0.166667 0.0833333
316 1 0.166667 0.25 0.0833333
317 1 0.166667 0.166667 0.166667
318 1 0.208333 0.25 0.166667
319 1 0.208333 0.166667 0.25
320 1 0.166667 0.25 0.25
321 1 0.166667 0.166667 0.333333
322 1 0.208333 0.25 0.333333
323 1 0.208333 0.166667 0.416667
324 1 0.166667 0.25 0.416667
337 1 0.166667 0.333333 0
338 1 0.208333 0.416667 0
339 1 0.208333 0.333333 0.0833333
340 1 0.166667 0.416667 0.0833333
341 1 0.166667 0.333333 0.166667
342 1 0.208333 0.416667 0.166667
343 1 0.208333 0.333333 0.25
344 1 0.166667 0.416667 0.25
345 1 0.166667 0.333333 0.333333
346 1 0.208333 0.416667 0.333333
347 1 0.208333 0.333333 0.416667
348 1 0.166667 0.416667 0.416667
433 1 0.25 0 0
434 1 0.291667 0.0833333 0
435 1 0.291667 0 0.0833333
436 1 0.25 0.0833333 0.0833333
437 1 0.25 0 0.166667
438 1 0.291667 0.0833333 0.166667
439 1 0.291667 0 0.25
440 1 0.25 0.0833333 0.25
441 1 0.25 0 0.333333
442 1 0.291667 0.0833333 0.333333
443 1 0.291667 0 0.416667
444 1 0.25 0.0833333 0.416667
457 1 0.25 0.166667 0
458 1 0.291667 0.25 0
459 1 0.291667 0.166667 0.0833333
460 1 0.25 0.25 0.0833333
461 1 0.25 0.166667 0.166667
462 1 0.291667 0.25 0.166667
463 1 0.291667 0.166667 0.25
464 1 0.25 0.25 0.25
465 1 0.25 0.166667 0.333333
466 1 0.291667 0.25 0.333333
467 1 0.291667 0.166667 0.416667
468 1 0.25 0.25 0.416667
481 1 0.25 0.333333 0
482 1 0.291667 0.416667 0
483 1 0.291667 0.333333 0.0833333
484 1 0.25 0.416667 0.0833333
485 1 0.25 0.333333 0.166667
486 1 0.291667 0.416667 0.166667
487 1 0.291667 0.333333 0.25
488 1 0.25 0.416667 0.25
489 1 0.25 0.333333 0.333333
490 1 0.291667 0.416667 0.333333
491 1 0.291667 0.333333 0.416667
492 1 0.25 0.416667 0.416667
577 1 0.333333 0 0
578 1 0.375 0.0833333 0
579 1 0.375 0 0.0833333
580 1 0.333333 0.0833333 0.0833333
581 1 0.333333 0 0.166667
582 1 0.375 0.0833333 0.166667
583 1 0.375 0 0.25
584 1 0.333333 0.0833333 0.25
585 1 0.333333 0 0.333333
586 1 0.375 0.0833333 0.333333
587 1 0.375 0 0.416667
588 1 0.333333 0.0833333 0.416667
601 1 0.333333 0.166667 0
602 1 0.375 0.25 0
603 1 0.375 0.166667 0.0833333
604 1 0.333333 0.25 0.0833333
605 1 0.333333 0.166667 0.166667
606 1 0.375 0.25 0.166667
607 1 0.375 0.166667 0.25
608 1 0.333333 0.25 0.25
609 1 0.333333 0.166667 0.333333
610 1 0.375 0.25 0.333333
611 1 0.375 0.166667 0.416667
612 1 0.333333 0.25 0.416667
625 1 0.333333 0.333333 0
626 1 0.375 0.416667 0
627 1 0.375 0.333333 0.0833333
628 1 0.333333 0.416667 0.0833333
629 1 0.333333 0.333333 0.166667
630 1 0.375 0.416667 0.166667
631 1 0.375 0.333333 0.25
632 1 0.333333 0.416667 0.25
633 1 0.333333 0.333333 0.333333
634 1 0.375 0.416667 0.333333
635 1 0.375 0.333333 0.416667
636 1 0.333333 0.416667 0.416667
721 1 0.416667 0 0
722 1 0.458333 0.0833333 0
723 1 0.458333 0 0.0833333
724 1 0.416667 0.0833333 0.0833333
725 1 0.416667 0 0.166667
726 1 0.458333 0.0833333 0.166667
727 1 0.458333 0 0.25
728 1 0.416667 0.0833333 0.25
729 1 0.416667 0 0.333333
730 1 0.458333 0.0833333 0.333333
731 1 0.458333 0 0.416667
732 1 0.416667 0.0833333 0.416667
745 1 0.416667 0.166667 0
746 1 0.458333 0.25 0
747 1 0.458333 0.166667 0.0833333
748 1 0.416667 0.25 0.0833333
749 1 0.416667 0.166667 0.166667
750 1 0.458333 0.25 0.166667
751 1 0.458333 0.166667 0.25
752 1 0.416667 0.25 0.25
753 1 0.416667 0.166667 0.333333
754 1 0.458333 0.25 0.333333
755 1 0.458333 0.166667 0.416667
756 1 0.416667 0.25 0.416667
769 1 0.416667 0.333333 0
770 1 0.458333 0.416667 0
771 1 0.458333 0.333333 0.0833333
772 1 0.416667 0.416667 0.0833333
773 1 0.416667 0.333333 0.166667
774 1 0.458333 0.416667 0.166667
775 1 0.458333 0.333333 0.25
776 1 0.416667 0.416667 0.25
777 1 0.416667 0.333333 0.333333
778 1 0.458333 0.416667 0.333333
779 1 0.458333 0.333333 0.416667
780 1 0.416667 0.416667 0.416667
13 1 0 0 0.5
14 1 0.0416667 0.0833333 0.5
15 1 0.0416667 0 0.583333
16 1 0 0.0833333 0.583333
17 1 0 0 0.666667
18 1 0.0416667 0.0833333 0.666667
19 1 0.0416667 0 0.75
20 1 0 0.0833333 0.75
21 1 0 0 0.833333
22 1 0.0416667 0.0833333 0.833333
23 1 0.0416667 0 0.916667
24 1 0 0.0833333 0.916667
37 1 0 0.166667 0.5
38 1 0.0416667 0.25 0.5
39 1 0.0416667 0.166667 0.583333
40 1 0 0.25 0.583333
41 1 0 0.166667 0.666667
42 1 0.0416667 0.25 0.666667
43 1 0.0416667 0.166667 0.75
44 1 0 0.25 0.75
45 1 0 0.166667 0.833333
46 1 0.0416667 0.25 0.833333
47 1 0.0416667 0.166667 0.916667
48 1 0 0.25 0.916667
61 1 0 0.333333 0.5
62 1 0.0416667 0.416667 0.5
63 1 0.0416667 0.333333 0.583333
64 1 0 0.416667 0.583333
65 1 0 0.333333 0.666667
66 1 0.0416667 0.416667 0.666667
67 1 0.0416667 0.333333 0.75
68 1 0 0.416667 0.75
69 1 0 0.333333 0.833333
70 1 0.0416667 0.416667 0.833333
71 1 0.0416667 0.333333 0.916667
72 1 0 0.416667 0.916667
157 1 0.0833333 0 0.5
158 1 0.125 0.0833333 0.5
159 1 0.125 0 0.583333
160 1 0.0833333 0.0833333 0.583333
161 1 0.0833333 0 0.666667
162 1 0.125 0.0833333 0.666667
163 1 0.125 0 0.75
164 1 0.0833333 0.0833333 0.75
165 1 0.0833333 0 0.833333
166 1 0.125 0.0833333 0.833333
167 1 0.125 0 0.916667
168 1 0.0833333 0.0833333 0.916667
181 1 0.0833333 0.166667 0.5
182 1 0.125 0.25 0.5
183 1 0.125 0.166667 0.583333
184 1 0.0833333 0.25 0.583333
185 1 0.0833333 0.166667 0.666667
186 1 0.125 0.25 0.666667
187 1 0.125 0.166667 0.75
188 1 0.0833333 0.25 0.75
189 1 0.0833333 0.166667 0.833333
190 1 0.125 0.25 0.833333
191 1 0.125 0.166667 0.916667
192 1 0.0833333 0.25 0.916667
205 1 0.0833333 0.333333 0.5
206 1 0.125 0.416667 0.5
207 1 0.125 0.333333 0.583333
208 1 0.0833333 0.416667 0.583333
209 1 0.0833333 0.333333 0.666667
210 1 0.125 0.416667 0.666667
211 1 0.125 0.333333 0.75
212 1 0.0833333 0.416667 0.75
213 1 0.0833333 0.333333 0.833333
214 1 0.125 0.416667 0.833333
215 1 0.125 0.333333 0.916667
216 1 0.0833333 0.416667 0.916667
301 1 0.166667 0 0.5
302 1 0.208333 0.0833333 0.5
303 1 0.208333 0 0.583333
304 1 0.166667 0.0833333 0.583333
305 1 0.166667 0 0.666667
306 1 0.208333 0.0833333 0.666667
307 1 0.208333 0 0.75
308 1 0.166667 0.0833333 0.75
309 1 0.166667 0 0.833333
310 1 0.208333 0.0833333 0.833333
311 1 0.208333 0 0.916667
312 1 0.166667 0.0833333 0.916667
325 1 0.166667 0.166667 0.5
326 1 0.208333 0.25 0.5
327 1 0.208333 0.166667 0.583333
328 1 0.166667 0.25 0.583333
329 1 0.166667 0.166667 0.666667
330 1 0.208333 0.25 0.666667
331 1 0.208333 0.166667 0.75
332 1 0.166667 0.25 0.75
333 1 0.166667 0.166667 0.833333
334 1 0.208333 0.25 0.833333
335 1 0.208333 0.166667 0.916667
336 1 0.166667 0.25 0.916667
349 1 0.166667 0.333333 0.5
350 1 0.208333 0.416667 0.5
351 1 0.208333 0.333333 0.583333
352 1 0.166667 0.416667 0.583333
353 1 0.166667 0.333333 0.666667
354 1 0.208333 0.416667 0.666667
355 1 0.208333 0.333333 0.75
356 1 0.166667 0.416667 0.75
357 1 0.166667 0.333333 0.833333
358 1 0.208333 0.416667 0.833333
359 1 0.208333 0.333333 0.916667
360 1 0.166667 0.416667 0.916667
445 1 0.25 0 0.5
446 1 0.291667 0.0833333 0.5
447 1 0.291667 0 0.583333
448 1 0.25 0.0833333 0.583333
449 1 0.25 0 0.666667
450 1 0.291667 0.0833333 0.666667
451 1 0.291667 0 0.75
452 1 0.25 0.0833333 0.75
453 1 0.25 0 0.833333
454 1 0.291667 0.0833333 0.833333
455 1 0.291667 0 0.916667
456 1 0.25 0.0833333 0.916667
469 1 0.25 0.166667 0.5
470 1 0.291667 0.25 0.5
471 1 0.291667 0.166667 0.583333
472 1 0.25 0.25 0.583333
473 1 0.25 0.166667 0.666667
474 1 0.291667 0.25 0.666667
475 1 0.291667 0.166667 0.75
476 1 0.25 0.25 0.75
477 1 0.25 0.166667 0.833333
478 1 0.291667 0.25 0.833333
479 1 0.291667 0.166667 0.916667
480 1 0.25 0.25 0.916667
493 1 0.25 0.333333 0.5
494 1 0.291667 0.416667 0.5
495 1 0.291667 0.333333 0.583333
496 1 0.25 0.416667 0.583333
497 1 0.25 0.333333 0.666667
498 1 0.291667 0.416667 0.666667
499 1 0.291667 0.333333 0.75
500 1 0.25 0.416667 0.75
501 1 0.25 0.333333 0.833333
502 1 0.291667 0.416667 0.833333
503 1 0.291667 0.333333 0.916667
504 1 0.25 0.416667 0.916667
589 1 0.333333 0 0.5
590 1 0.375 0.0833333 0.5
591 1 0.375 0 0.583333
592 1 0.333333 0.0833333 0.583333
593 1 0.333333 0 0.666667
594 1 0.375 0.0833333 0.666667
595 1 0.375 0 0.75
596 1 0.333333 0.0833333 0.75
597 1 0.333333 0 0.833333
598 1 0.375 0.0833333 0.833333
599 1 0.375 0 0.916667
600 1 0.333333 0.0833333 0.916667
613 1 0.333333 0.166667 0.5
614 1 0.375 0.25 0.5
615 1 0.375 0.166667 0.583333
616 1 0.333333 0.25 0.583333
617 1 0.333333 0.166667 0.666667
618 1 0.375 0.25 0.666667
619 1 0.375 0.166667 0.75
620 1 0.333333 0.25 0.75
621 1 0.333333 0.166667 0.833333
622 1 0.375 0.25 0.833333
623 1 0.375 0.166667 0.916667
624 1 0.333333 0.25 0.916667
637 1 0.333333 0.333333 0.5
638 1 0.375 0.416667 0.5
639 1 0.375 0.333333 0.583333
640 1 0.333333 0.416667 0.583333
641 1 0.333333 0.333333 0.666667
642 1 0.375 0.416667 0.666667
643 1 0.375 0.333333 0.75
644 1 0.333333 0.416667 0.75
645 1 0.333333 0.333333 0.833333
646 1 0.375 0.416667 0.833333
647 1 0.375 0.333333 0.916667
648 1 0.333333 0.416667 0.916667
733 1 0.416667 0 0.5
734 1 0.458333 0.0833333 0.5
735 1 0.458333 0 0.583333
736 1 0.416667 0.0833333 0.583333
737 1 0.416667 0 0.666667
738 1 0.458333 0.0833333 0.666667
739 1 0.458333 0 0.75
740 1 0.416667 0.0833333 0.75
741 1 0.416667 0 0.833333
742 1 0.458333 0.0833333 0.833333
743 1 0.458333 0 0.916667
744 1 0.416667 0.0833333 0.916667
757 1 0.416667 0.166667 0.5
758 1 0.458333 0.25 0.5
759 1 0.458333 0.166667 0.583333
760 1 0.416667 0.25 0.583333
761 1 0.416667 0.166667 0.666667
762 1 0.458333 0.25 0.666667
763 1 0.458333 0.166667 0.75
764 1 0.416667 0.25 0.75
765 1 0.416667 0.166667 0.833333
766 1 0.458333 0.25 0.833333
767 1 0.458333 0.166667 0.916667
768 1 0.416667 0.25 0.916667
781 1 0.416667 0.333333 0.5
782 1 0.458333 0.416667 0.5
783 1 0.458333 0.333333 0.583333
784 1 0.416667 0.416667 0.583333
785 1 0.416667 0.333333 0.666667
786 1 0.458333 0.416667 0.666667
787 1 0.458333 0.333333 0.75
788 1 0.416667 0.416667 0.75
789 1 0.416667 0.333333 0.833333
790 1 0.458333 0.416667 0.833333
791 1 0.458333 0.333333 0.916667
792 1 0.416667 0.416667 0.916667
73 1 0 0.5 0
74 1 0.0416667 0.583333 0
75 1 0.0416667 0.5 0.0833333
76 1 0 0.583333 0.0833333
77 1 0 0.5 0.166667
78 1 0.0416667 0.583333 0.166667
79 1 0.0416667 0.5 0.25
80 1 0 0.583333 0.25
81 1 0 0.5 0.333333
82 1 0.0416667 0.583333 0.333333
83 1 0.0416667 0.5 0.416667
84 1 0 0.583333 0.416667
97 1 0 0.666667 0
98 1 0.0416667 0.75 0
99 1 0.0416667 0.666667 0.0833333
100 1 0 0.75 0.0833333
101 1 0 0.666667 0.166667
102 1 0.0416667 0.75 0.166667
103 1 0.0416667 0.666667 0.25
104 1 0 0.75 0.25
105 1 0 0.666667 0.333333
106 1 0.0416667 0.75 0.333333
107 1 0.0416667 0.666667 0.416667
108 1 0 0.75 0.416667
121 1 0 0.833333 0
122 1 0.0416667 0.916667 0
123 1 0.0416667 0.833333 0.0833333
124 1 0 0.916667 0.0833333
125 1 0 0.833333 0.166667
126 1 0.0416667 0.916667 0.166667
127 1 0.0416667 0.833333 0.25
128 1 0 0.916667 0.25
129 1 0 0.833333 0.333333
130 1 0.0416667 0.916667 0.333333
131 1 0.0416667 0.833333 0.416667
132 1 0 0.916667 0.416667
217 1 0.0833333 0.5 0
218 1 0.125 0.583333 0
219 1 0.125 0.5 0.0833333
220 1 0.0833333 0.583333 0.0833333
221 1 0.0833333 0.5 0.166667
222 1 0.125 0.583333 0.166667
223 1 0.125 0.5 0.25
224 1 0.0833333 0.583333 0.25
225 1 0.0833333 0.5 0.333333
226 1 0.125 0.583333 0.333333
227 1 0.125 0.5 0.416667
228 1 0.0833333 0.583333 0.416667
241 1 0.0833333 0.666667 0
242 1 0.125 0.75 0
243 1 0.125 0.666667 0.0833333
244 1 0.0833333 0.75 0.0833333
245 1 0.0833333 0.666667 0.166667
246 1 0.125 0.75 0.166667
247 1 0.125 0.666667 0.25
248 1 0.0833333 0.75 0.25
249 1 0.0833333 0.666667 0.333333
250 1 0.125 0.75 0.333333
251 1 0.125 0.666667 0.416667
252 1 0.0833333 0.75 0.416667
265 1 0.0833333 0.833333 0
266 1 0.125 0.916667 0
267 1 0.125 0.833333 0.0833333
268 1 0.0833333 0.916667 0.0833333
269 1 0.0833333 0.833333 0.166667
270 1 0.125 0.916667 0.166667
271 1 0.125 0.833333 0.25
272 1 0.0833333 0.916667 0.25
273 1 0.0833333 0.833333 0.333333
274 1 0.125 0.916667 0.333333
275 1 0.125 0.833333 0.416667
276 1 0.0833333 0.916667 0.416667
361 1 0.166667 0.5 0
362 1 0.208333 0.583333 0
363 1 0.208333 0.5 0.0833333
364 1 0.166667 0.583333 0.0833333
365 1 0.166667 0.5 0.166667
366 1 0.208333 0.583333 0.166667
367 1 0.208333 0.5 0.25
368 1 0.166667 0.583333 0.25
369 1 0.166667 0.5 0.333333
370 1 0.208333 0.583333 0.333333
371 1 0.208333 0.5 0.416667
372 1 0.166667 0.583333 0.416667
385 1 0.166667 0.666667 0
386 1 0.208333 0.75 0
387 1 0.208333 0.666667 0.0833333
388 1 0.166667 0.75 0.0833333
389 1 0.166667 0.666667 0.166667
390 1 0.208333 0.75 0.166667
391 1 0.208333 0.666667 0.25
392 1 0.166667 0.75 0.25
393 1 0.166667 0.666667 0.333333
394 1 0.208333 0.75 0.333333
395 1 0.208333 0.666667 0.416667
396 1 0.166667 0.75 0.416667
409 1 0.166667 0.833333 0
410 1 0.208333 0.916667 0
411 1 0.208333 0.833333 0.0833333
412 1 0.166667 0.916667 0.0833333
413 1 0.166667 0.833333 0.166667
414 1 0.208333 0.916667 0.166667
415 1 0.208333 0.833333 0.25
416 1 0.166667 0.916667 0.25
417 1 0.166667 0.833333 0.333333
418 1 0.208333 0.916667 0.333333
419 1 0.208333 0.833333 0.416667
420 1 0.166667 0.916667 0.416667
505 1 0.25 0.5 0
506 1 0.291667 0.583333 0
507 1 0.291667 0.5 0.0833333
508 1 0.25 0.583333 0.0833333
509 1 0.25 0.5 0.166667
510 1 0.291667 0.583333 0.166667
511 1 0.291667 0.5 0.25
512 1 0.25 0.583333 0.25
513 1 0.25 0.5 0.333333
514 1 0.291667 0.583333 0.333333
515 1 0.291667 0.5 0.416667
516 1 0.25 0.583333 0.416667
529 1 0.25 0.666667 0
530 1 0.291667 0.75 0
531 1 0.291667 0.666667 0.0833333
532 1 0.25 0.75 0.0833333
533 1 0.25 0.666667 0.166667
534 1 0.291667 0.75 0.166667
535 1 0.291667 0.666667 0.25
536 1 0.25 0.75 0.25
537 1 0.25 0.666667 0.333333
538 1 0.291667 0.75 0.333333
539 1 0.291667 0.666667 0.416667
540 1 0.25 0.75 0.416667
553 1 0.25 0.833333 0
554 1 0.291667 0.916667 0
555 1 0.291667 0.833333 0.0833333
556 1 0.25 0.916667 0.0833333
557 1 0.25 0.833333 0.166667
558 1 0.291667 0.916667 0.166667
559 1 0.291667 0.833333 0.25
560 1 0.25 0.916667 0.25
561 1 0.25 0.833333 0.333333
562 1 0.291667 0.916667 0.333333
563 1 0.291667 0.833333 0.416667
564 1 0.25 0.916667 0.416667
649 1 0.333333 0.5 0
650 1 0.375 0.583333 0
651 1 0.375 0.5 0.0833333
652 1 0.333333 0.583333 0.0833333
653 1 0.333333 0.5 0.166667
654 1 0.375 0.583333 0.166667
655 1 0.375 0.5 0.25
656 1 0.333333 0.583333 0.25
657 1 0.333333 0.5 0.333333
658 1 0.375 0.583333 0.333333
659 1 0.375 0.5 0.416667
660 1 0.333333 0.583333 0.416667
673 1 0.333333 0.666667 0
674 1 0.375 0.75 0
675 1 0.375 0.666667 0.0833333
676 1 0.333333 0.75 0.0833333
677 1 0.333333 0.666667 0.166667
678 1 0.375 0.75 0.166667
679 1 0.375 0.666667 0.25
680 1 0.333333 0.75 0.25
681 1 0.333333 0.666667 0.333333
682 1 0.375 0.75 0.333333
683 1 0.375 0.666667 0.416667
684 1 0.333333 0.75 0.416667
697 1 0.333333 0.833333 0
698 1 0.375 0.916667 0
699 1 0.375 0.833333 0.0833333
700 1 0.333333 0.916667 0.0833333
701 1 0.333333 0.833333 0.166667
702 1 0.375 0.916667 0.166667
703 1 0.375 0.833333 0.25
704 1 0.333333 0.916667 0.25
705 1 0.333333 0.833333 0.333333
706 1 0.375 0.916667 0.333333
707 1 0.375 0.833333 0.416667
708 1 0.333333 0.916667 0.416667
793 1 0.416667 0.5 0
794 1 0.458333 0.583333 0
795 1 0.458333 0.5 0.0833333
796 1 0.416667 0.583333 0.0833333
797 1 0.416667 0.5 0.166667
798 1 0.458333 0.583333 0.166667
799 1 0.458333 0.5 0.25
800 1 0.416667 0.583333 0.25
801 1 0.416667 0.5 0.333333
802 1 0.458333 0.583333 0.333333
803 1 0.458333 0.5 0.416667
804 1 0.416667 0.583333 0.416667
817 1 0.416667 0.666667 0
818 1 0.458333 0.75 0
819 1 0.458333 0.666667 0.0833333
820 1 0.416667 0.75 0.0833333
821 1 0.416667 0.666667 0.166667
822 1 0.458333 0.75 0.166667
823 1 0.458333 0.666667 0.25
824 1 0.416667 0.75 0.25
825 1 0.416667 0.666667 0.333333
826 1 0.458333 0.75 0.333333
827 1 0.458333 0.666667 0.416667
828 1 0.416667 0.75 0.416667
841 1 0.416667 0.833333 0
842 1 0.458333 0.916667 0
843 1 0.458333 0.833333 0.0833333
844 1 0.416667 0.916667 0.0833333
845 1 0.416667 0.833333 0.166667
846 1 0.458333 0.916667 0.166667
847 1 0.458333 0.833333 0.25
848 1 0.416667 0.916667 0.25
849 1 0.416667 0.833333 0.333333
850 1 0.458333 0.916667 0.333333
851 1 0.458333 0.833333 0.416667
852 1 0.416667 0.916667 0.416667
85 1 0 0.5 0.5
86 1 0.0416667 0.583333 0.5
87 1 0.0416667 0.5 0.583333
88 1 0 0.583333 0.583333
89 1 0 0.5 0.666667
90 1 0.0416667 0.583333 0.666667
91 1 0.0416667 0.5 0.75
92 1 0 0.583333 0.75
93 1 0 0.5 0.833333
94 1 0.0416667 0.583333 0.833333
95 1 0.0416667 0.5 0.916667
96 1 0 0.583333 0.916667
109 1 0 0.666667 0.5
110 1 0.0416667 0.75 0.5
111 1 0.0416667 0.666667 0.583333
112 1 0 0.75 0.583333
113 1 0 0.666667 0.666667
114 1 0.0416667 0.75 0.666667
115 1 0.0416667 0.666667 0.75
116 1 0 0.75 0.75
117 1 0 0.666667 0.833333
118 1 0.0416667 0.75 0.833333
119 1 0.0416667 0.666667 0.916667
120 1 0 0.75 0.916667
133 1 0 0.833333 0.5
134 1 0.0416667 0.916667 0.5
135 1 0.0416667 0.833333 0.583333
136 1 0 0.916667 0.583333
137 1 0 0.833333 0.666667
138 1 0.0416667 0.916667 0.666667
139 1 0.0416667 0.833333 0.75
140 1 0 0.916667 0.75
141 1 0 0.833333 0.833333
142 1 0.0416667 0.916667 0.833333
143 1 0.0416667 0.833333 0.916667
144 1 0 0.916667 0.916667
229 1 0.0833333 0.5 0.5
230 1 0.125 0.583333 0.5
231 1 0.125 0.5 0.583333
232 1 0.0833333 0.583333 0.583333
233 1 0.0833333 0.5 0.666667
234 1 0.125 0.583333 0.666667
235 1 0.125 0.5 0.75
236 1 0.0833333 0.583333 0.75
237 1 0.0833333 0.5 0.833333
238 1 0.125 0.583333 0.833333
239 1 0.125 0.5 0.916667
240 1 0.0833333 0.583333 0.916667
253 1 0.0833333 0.666667 0.5
254 1 0.125 0.75 0.5
255 1 0.125 0.666667 0.583333
256 1 0.0833333 0.75 0.583333
257 1 0.0833333 0.666667 0.666667
258 1 0.125 0.75 0.666667
259 1 0.125 0.666667 0.75
260 1 0.0833333 0.75 0.75
261 1 0.0833333 0.666667 0.833333
262 1 0.125 0.75 0.833333
263 1 0.125 0.666667 0.916667
264 1 0.0833333 0.75 0.916667
277 1 0.0833333 0.833333 0.5
278 1 0.125 0.916667 0.5
279 1 0.125 0.833333 0.583333
280 1 0.0833333 0.916667 0.583333
281 1 0.0833333 0.833333 0.666667
282 1 0.125 0.916667 0.666667
283 1 0.125 0.833333 0.75
284 1 0.0833333 0.916667 0.75
285 1 0.0833333 0.833333 0.833333
286 1 0.125 0.916667 0.833333
287 1 0.125 0.833333 0.916667
288 1 0.0833333 0.916667 0.916667
373 1 0.166667 0.5 0.5
374 1 0.208333 0.583333 0.5
375 1 0.208333 0.5 0.583333
376 1 0.166667 0.583333 0.583333
377 1 0.166667 0.5 0.666667
378 1 0.208333 0.583333 0.666667
379 1 0.208333 0.5 0.75
380 1 0.166667 0.583333 0.75
381 1 0.166667 0.5 0.833333
382 1 0.208333 0.583333 0.833333
383 1 0.208333 0.5 0.916667
384 1 0.166667 0.583333 0.916667
397 1 0.166667 0.666667 0.5
398 1 0.208333 0.75 0.5
399 1 0.208333 0.666667 0.583333
400 1 0.166667 0.75 0.583333
401 1 0.166667 0.666667 0.666667
402 1 0.208333 0.75 0.666667
403 1 0.208333 0.666667 0.75
404 1 0.166667 0.75 0.75
405 1 0.166667 0.666667 0.833333
406 1 0.208333 0.75 0.833333
407 1 0.208333 0.666667 0.916667
408 1 0.166667 0.75 0.916667
421 1 0.166667 0.833333 0.5
422 1 0.208333 0.916667 0.5
423 1 0.208333 0.833333 0.583333
424 1 0.166667 0.916667 0.583333
425 1 0.166667 0.833333 0.666667
426 1 0.208333 0.916667 0.666667
427 1 0.208333 0.833333 0.75
428 1 0.166667 0.916667 0.75
429 1 0.166667 0.833333 0.833333
430 1 0.208333 0.916667 0.833333
431 1 0.208333 0.833333 0.916667
432 1 0.166667 0.916667 0.916667
517 1 0.25 0.5 0.5
518 1 0.291667 0.583333 0.5
519 1 0.291667 0.5 0.583333
520 1 0.25 0.583333 0.583333
521 1 0.25 0.5 0.666667
522 1 0.291667 0.583333 0.666667
523 1 0.291667 0.5 0.75
524 1 0.25 0.583333 0.75
525 1 0.25 0.5 0.833333
526 1 0.291667 0.583333 0.833333
527 1 0.291667 0.5 0.916667
528 1 0.25 0.583333 0.916667
541 1 0.25 0.666667 0.5
542 1 0.291667 0.75 0.5
543 1 0.291667 0.666667 0.583333
544 1 0.25 0.75 0.583333
545 1 0.25 0.666667 0.666667
546 1 0.291667 0.75 0.666667
547 1 0.291667 0.666667 0.75
548 1 0.25 0.75 0.75
549 1 0.25 0.666667 0.833333
550 1 0.291667 0.75 0.833333
551 1 0.291667 0.666667 0.916667
552 1 0.25 0.75 0.916667
565 1 0.25 0.833333 0.5
566 1 0.291667 0.916667 0.5
567 1 0.291667 0.833333 0.583333
568 1 0.25 0.916667 0.583333
569 1 0.25 0.833333 0.666667
570 1 0.291667 0.916667 0.666667
571 1 0.291667 0.833333 0.75
572 1 0.25 0.916667 0.75
573 1 0.25 0.833333 0.833333
574 1 0.291667 0.916667 0.833333
575 1 0.291667 0.833333 0.916667
576 1 0.25 0.916667 0.916667
661 1 0.333333 0.5 0.5
662 1 0.375 0.583333 0.5
663 1 0.375 0.5 0.583333
664 1 0.333333 0.583333 0.583333
665 1 0.333333 0.5 0.666667
666 1 0.375 0.583333 0.666667
667 1 0.375 0.5 0.75
668 1 0.333333 0.583333 0.75
669 1 0.333333 0.5 0.833333
670 1 0.375 0.583333 0.833333
671 1 0.375 0.5 0.916667
672 1 0.333333 0.583333 0.916667
685 1 0.333333 0.666667 0.5
686 1 0.375 0.75 0.5
687 1 0.375 0.666667 0.583333
688 1 0.333333 0.75 0.583333
689 1 0.333333 0.666667 0.666667
690 1 0.375 0.75 0.666667
691 1 0.375 0.666667 0.75
692 1 0.333333 0.75 0.75
693 1 0.333333 0.666667 0.833333
694 1 0.375 0.75 0.833333
695 1 0.375 0.666667 0.916667
696 1 0.333333 0.75 0.916667
709 1 0.333333 0.833333 0.5
710 1 0.375 0.916667 0.5
711 1 0.375 0.833333 0.583333
712 1 0.333333 0.916667 0.583333
713 1 0.333333 0.833333 0.666667
714 1 0.375 0.916667 0.666667
715 1 0.375 0.833333 0.75
716 1 0.333333 0.916667 0.75
717 1 0.333333 0.833333 0.833333
718 1 0.375 0.916667 0.833333
719 1 0.375 0.833333 0.916667
720 1 0.333333 0.916667 0.916667
805 1 0.416667 0.5 0.5
806 1 0.458333 0.583333 0.5
807 1 0.458333 0.5 0.583333
808 1 0.416667 0.583333 0.583333
809 1 0.416667 0.5 0.666667
810 1 0.458333 0.583333 0.666667
811 1 0.458333 0.5 0.75
812 1 0.416667 0.583333 0.75
813 1 0.416667 0.5 0.833333
814 1 0.458333 0.583333 0.833333
815 1 0.458333 0.5 0.916667
816 1 0.416667 0.583333 0.916667
829 1 0.416667 0.666667 0.5
830 1 0.458333 0.75 0.5
831 1 0.458333 0.666667 0.583333
832 1 0.416667 0.75 0.583333
833 1 0.416667 0.666667 0.666667
834 1 0.458333 0.75 0.666667
835 1 0.458333 0.666667 0.75
836 1 0.416667 0.75 0.75
837 1 0.416667 0.666667 0.833333
838 1 0.458333 0.75 0.833333
839 1 0.458333 0.666667 0.916667
840 1 0.416667 0.75 0.916667
853 1 0.416667 0.833333 0.5
854 1 0.458333 0.916667 0.5
855 1 0.458333 0.833333 0.583333
856 1 0.416667 0.916667 0.583333
857 1 0.416667 0.833333 0.666667
858 1 0.458333 0.916667 0.666667
859 1 0.458333 0.833333 0.75
860 1 0.416667 0.916667 0.75
861 1 0.416667 0.833333 0.833333
862 1 0.458333 0.916667 0.833333
863 1 0.458333 0.833333 0.916667
864 1 0.416667 0.916667 0.916667
ITEM: TIMESTEP
10000
ITEM: NUMBER OF ATOMS
864
ITEM: BOX BOUNDS pp pp pp
0.0000000000000000e+00 1.5119052598738476e+01
0.0000000000000000e+00 7.5595262993692378e+00
0.0000000000000000e+00 7.5595262993692378e+00
ITEM: ATOMS id type xs ys zs
150 1 0.013743 0.0952716 0.173787
174 1 0.0310058 0.226528 0.111054
195 1 0.0620865 0.297967 0.0184198
198 1 0.0142018 0.307624 0.258276
199 1 0.0270168 0.25687 0.394914
313 1 0.131747 0.081436 0.0567098
653 1 0.455995 0.493888 0.107028
292 1 0.0611363 0.0955151 0.0763858
296 1 0.111084 0.125859 0.198039
300 1 0.130587 0.090451 0.34344
316 1 0.10295 0.227626 0.112355
317 1 0.0496111 0.195553 0.237918
320 1 0.114922 0.249547 0.25596
321 1 0.0663687 0.151747 0.368494
324 1 0.138823 0.177228 0.463997
340 1 0.0957685 0.417071 0.0830444
341 1 0.0678925 0.318399 0.179789
344 1 0.0696746 0.351933 0.313252
345 1 0.100892 0.269615 0.39527
348 1 0.0558722 0.381969 0.452391
155 1 0.0119157 0.0392459 0.411064
301 1 0.0824932 0.0324349 0.430555
369 1 0.0605002 0.482192 0.330098
223 1 0.028575 0.438988 0.223711
365 1 0.107965 0.441002 0.225285
219 1 0.0296353 0.406678 0.0924579
297 1 0.0741309 0.0477615 0.28093
350 1 0.119109 0.428326 0.441692
337 1 0.147164 0.320945 0.0567126
346 1 0.15124 0.351269 0.313966
302 1 0.148332 0.0314108 0.477697
315 1 0.181891 0.0997325 0.15876
342 1 0.167875 0.386381 0.183335
481 1 0.279869 0.375848 0.0292901
513 1 0.312188 0.466195 0.284171
493 1 0.269196 0.358141 0.465563
457 1 0.245262 0.163616 0.0520638
298 1 0.208501 0.0598242 0.313907
318 1 0.174628 0.239069 0.16028
319 1 0.23471 0.169383 0.20745
322 1 0.177717 0.196226 0.300585
323 1 0.20285 0.135683 0.42556
339 1 0.212064 0.41008 0.0646002
343 1 0.220435 0.315302 0.248101
347 1 0.191564 0.291721 0.395734
436 1 0.275234 0.0214844 0.124135
440 1 0.293724 0.0817313 0.241844
444 1 0.284922 0.0896572 0.380546
460 1 0.237425 0.290531 0.104741
461 1 0.313634 0.140334 0.107026
464 1 0.285286 0.256324 0.214016
465 1 0.253205 0.203131 0.340006
468 1 0.299174 0.223 0.467189
484 1 0.340994 0.445438 0.00585076
485 1 0.276588 0.388832 0.180766
488 1 0.248708 0.43588 0.329851
489 1 0.308892 0.304799 0.342361
491 1 0.333773 0.414403 0.426386
492 1 0.18909 0.430493 0.405828
314 1 0.175204 0.188883 0.0179596
290 1 0.209935 0.0455806 0.0452762
494 1 0.416413 0.395763 0.481031
604 1 0.403398 0.244635 0.146843
435 1 0.349283 0.0229918 0.035811
470 1 0.368489 0.278727 0.418663
509 1 0.353315 0.467079 0.183565
628 1 0.482923 0.369613 0.108235
609 1 0.470247 0.193236 0.307464
467 1 0.349958 0.158917 0.356021
483 1 0.332133 0.312815 0.136029
151 1 0.00406951 0.0154048 0.276917
482 1 0.384426 0.352683 0.0453319
600 1 0.403465 0.118027 0.0105883
463 1 0.386965 0.0753105 0.279377
612 1 0.495231 0.307344 0.347383
588 1 0.413157 0.132337 0.403874
458 1 0.356893 0.228648 0.0352201
486 1 0.415737 0.385066 0.160948
584 1 0.456932 0.051086 0.301209
627 1 0.464172 0.246611 0.107381
459 1 0.397391 0.0545898 0.141128
466 1 0.403388 0.218255 0.305349
442 1 0.355548 0.0308612 0.41589
487 1 0.363077 0.32598 0.249961
490 1 0.379042 0.460734 0.333069
633 1 0.421555 0.334468 0.355085
629 1 0.450338 0.306524 0.23885
632 1 0.451989 0.456942 0.246955
580 1 0.469706 0.124476 0.0419064
586 1 0.4815 0.0989331 0.422484
613 1 0.447406 0.245185 0.43135
636 1 0.465681 0.42231 0.399262
299 1 0.224837 0.00167962 0.447583
462 1 0.346155 0.18411 0.216947
605 1 0.448947 0.127414 0.179005
363 1 0.148429 0.499323 0.0965037
295 1 0.14212 0.00413282 0.226884
625 1 0.444376 0.396302 0.0035196
381 1 0.0561465 0.468575 0.834867
644 1 0.431805 0.451602 0.737963
186 1 0.014177 0.298119 0.655086
187 1 0.0232403 0.217429 0.757951
170 1 0.038349 0.171026 0.972889
207 1 0.01536 0.395254 0.57033
211 1 0.0484818 0.349768 0.763659
305 1 0.0780969 0.0744187 0.704439
214 1 0.0208816 0.389903 0.918835
215 1 0.0504328 0.264662 0.876833
304 1 0.101862 0.111571 0.564234
308 1 0.0412084 0.0997802 0.818279
312 1 0.0751448 0.0568655 0.951713
328 1 0.0601658 0.193922 0.655973
329 1 0.128939 0.171384 0.67161
333 1 0.0884275 0.225704 0.772066
336 1 0.102608 0.194533 0.957116
352 1 0.0810316 0.439621 0.559601
353 1 0.0974786 0.353306 0.661344
356 1 0.120249 0.450675 0.774643
357 1 0.117026 0.311688 0.867676
360 1 0.0854693 0.404169 0.942677
159 1 0.0402041 0.0125575 0.618919
377 1 0.0377188 0.45889 0.692581
349 1 0.0932392 0.292076 0.545044
182 1 0.0305631 0.27023 0.528624
146 1 0.00864504 0.0631859 0.94459
310 1 0.124526 0.0708993 0.81329
643 1 0.476704 0.357872 0.768798
330 1 0.162917 0.277937 0.61963
354 1 0.157661 0.426471 0.662333
338 1 0.147138 0.426629 0.967505
332 1 0.155159 0.265611 0.757857
446 1 0.325174 0.0957317 0.534872
469 1 0.252857 0.118763 0.579792
434 1 0.322606 0.131479 0.965976
306 1 0.179868 0.0381811 0.653192
375 1 0.224734 0.443034 0.539282
327 1 0.176743 0.150296 0.570604
331 1 0.221195 0.216524 0.679513
334 1 0.226585 0.261225 0.83186
335 1 0.162458 0.174572 0.872666
351 1 0.165017 0.362805 0.517019
355 1 0.214092 0.347846 0.727119
358 1 0.184002 0.376774 0.858254
359 1 0.220207 0.284498 0.97137
448 1 0.254765 0.0162095 0.70565
452 1 0.253553 0.127749 0.784386
456 1 0.245365 0.116629 0.924428
472 1 0.297242 0.231907 0.616993