ITEM: TIMESTEP
0
ITEM: NUMBER OF ATOMS
864
ITEM: BOX BOUNDS pp pp pp
0.0000000000000000e+00 1.5119052598738476e+01
0.0000000000000000e+00 7.5595262993692378e+00
0.0000000000000000e+00 7.5595262993692378e+00
ITEM: ATOMS id type xs ys zs
1 1 0 0 0
2 1 0.0416667 0.0833333 0
3 1 0.0416667 0 0.0833333
4 1 0 0.0833333 0.0833333
5 1 0 0 0.166667
6 1 0.0416667 0.0833333 0.166667
7 1 0.0416667 0 0.25
8 1 0 0.0833333 0.25
25 1 0 0.166667 0
26 1 0.0416667 0.25 0
27 1 0.0416667 0.166667 0.0833333
28 1 0 0.25 0.0833333
29 1 0 0.166667 0.166667
30 1 0.0416667 0.25 0.166667
31 1 0.0416667 0.166667 0.25
32 1 0 0.25 0.25
145 1 0.0833333 0 0
148 1 0.0833333 0.0833333 0.0833333
149 1 0.0833333 0 0.166667
152 1 0.0833333 0.0833333 0.25
169 1 0.0833333 0.166667 0
172 1 0.0833333 0.25 0.0833333
173 1 0.0833333 0.166667 0.166667
176 1 0.0833333 0.25 0.25
146 1 0.125 0.0833333 0
147 1 0.125 0 0.0833333
150 1 0.125 0.0833333 0.166667
151 1 0.125 0 0.25
170 1 0.125 0.25 0
171 1 0.125 0.166667 0.0833333
174 1 0.125 0.25 0.166667
175 1 0.125 0.166667 0.25
289 1 0.166667 0 0
290 1 0.208333 0.0833333 0
291 1 0.208333 0 0.0833333
292 1 0.166667 0.0833333 0.0833333
293 1 0.166667 0 0.166667
294 1 0.208333 0.0833333 0.166667
295 1 0.208333 0 0.25
296 1 0.166667 0.0833333 0.25
313 1 0.166667 0.166667 0
314 1 0.208333 0.25 0
315 1 0.208333 0.166667 0.0833333
316 1 0.166667 0.25 0.0833333
317 1 0.166667 0.166667 0.166667
318 1 0.208333 0.25 0.166667
319 1 0.208333 0.166667 0.25
320 1 0.166667 0.25 0.25
433 1 0.25 0 0
434 1 0.291667 0.0833333 0
435 1 0.291667 0 0.0833333
436 1 0.25 0.0833333 0.0833333
437 1 0.25 0 0.166667
438 1 0.291667 0.0833333 0.166667
439 1 0.291667 0 0.25
440 1 0.25 0.0833333 0.25
457 1 0.25 0.166667 0
458 1 0.291667 0.25 0
459 1 0.291667 0.166667 0.0833333
460 1 0.25 0.25 0.0833333
461 1 0.25 0.166667 0.166667
462 1 0.291667 0.25 0.166667
463 1 0.291667 0.166667 0.25
464 1 0.25 0.25 0.25
577 1 0.333333 0 0
578 1 0.375 0.0833333 0
579 1 0.375 0 0.0833333
580 1 0.333333 0.0833333 0.0833333
581 1 0.333333 0 0.166667
582 1 0.375 0.0833333 0.166667
583 1 0.375 0 0.25
584 1 0.333333 0.0833333 0.25
601 1 0.333333 0.166667 0
602 1 0.375 0.25 0
603 1 0.375 0.166667 0.0833333
604 1 0.333333 0.25 0.0833333
605 1 0.333333 0.166667 0.166667
606 1 0.375 0.25 0.166667
607 1 0.375 0.166667 0.25
608 1 0.333333 0.25 0.25
721 1 0.416667 0 0
724 1 0.416667 0.0833333 0.0833333
725 1 0.416667 0 0.166667
728 1 0.416667 0.0833333 0.25
745 1 0.416667 0.166667 0
748 1 0.416667 0.25 0.0833333
749 1 0.416667 0.166667 0.166667
752 1 0.416667 0.25 0.25
722 1 0.458333 0.0833333 0
723 1 0.458333 0 0.0833333
726 1 0.458333 0.0833333 0.166667
727 1 0.458333 0 0.25
746 1 0.458333 0.25 0
747 1 0.458333 0.166667 0.0833333
750 1 0.458333 0.25 0.166667
751 1 0.458333 0.166667 0.25
49 1 0 0.333333 0
50 1 0.0416667 0.416667 0
51 1 0.0416667 0.333333 0.0833333
52 1 0 0.416667 0.0833333
53 1 0 0.333333 0.166667
54 1 0.0416667 0.416667 0.166667
55 1 0.0416667 0.333333 0.25
56 1 0 0.416667 0.25
73 1 0 0.5 0
75 1 0.0416667 0.5 0.0833333
77 1 0 0.5 0.166667
79 1 0.0416667 0.5 0.25
193 1 0.0833333 0.333333 0
196 1 0.0833333 0.416667 0.0833333
197 1 0.0833333 0.333333 0.166667
200 1 0.0833333 0.416667 0.25
217 1 0.0833333 0.5 0
221 1 0.0833333 0.5 0.166667
194 1 0.125 0.416667 0
195 1 0.125 0.333333 0.0833333
198 1 0.125 0.416667 0.166667
199 1 0.125 0.333333 0.25
219 1 0.125 0.5 0.0833333
223 1 0.125 0.5 0.25
337 1 0.166667 0.333333 0
338 1 0.208333 0.416667 0
339 1 0.208333 0.333333 0.0833333
340 1 0.166667 0.416667 0.0833333
341 1 0.166667 0.333333 0.166667
342 1 0.208333 0.416667 0.166667
343 1 0.208333 0.333333 0.25
344 1 0.166667 0.416667 0.25
361 1 0.166667 0.5 0
363 1 0.208333 0.5 0.0833333
365 1 0.166667 0.5 0.166667
367 1 0.208333 0.5 0.25
481 1 0.25 0.333333 0
482 1 0.291667 0.416667 0
483 1 0.291667 0.333333 0.0833333
484 1 0.25 0.416667 0.0833333
485 1 0.25 0.333333 0.166667
486 1 0.291667 0.416667 0.166667
487 1 0.291667 0.333333 0.25
488 1 0.25 0.416667 0.25
505 1 0.25 0.5 0
507 1 0.291667 0.5 0.0833333
509 1 0.25 0.5 0.166667
511 1 0.291667 0.5 0.25
625 1 0.333333 0.333333 0
626 1 0.375 0.416667 0
627 1 0.375 0.333333 0.0833333
628 1 0.333333 0.416667 0.0833333
629 1 0.333333 0.333333 0.166667
630 1 0.375 0.416667 0.166667
631 1 0.375 0.333333 0.25
632 1 0.333333 0.416667 0.25
649 1 0.333333 0.5 0
651 1 0.375 0.5 0.0833333
653 1 0.333333 0.5 0.166667
655 1 0.375 0.5 0.25
769 1 0.416667 0.333333 0
772 1 0.416667 0.416667 0.0833333
773 1 0.416667 0.333333 0.166667
776 1 0.416667 0.416667 0.25
793 1 0.416667 0.5 0
797 1 0.416667 0.5 0.166667
770 1 0.458333 0.416667 0
771 1 0.458333 0.333333 0.0833333
774 1 0.458333 0.416667 0.166667
775 1 0.458333 0.333333 0.25
795 1 0.458333 0.5 0.0833333
799 1 0.458333 0.5 0.25
74 1 0.0416667 0.583333 0
76 1 0 0.583333 0.0833333
78 1 0.0416667 0.583333 0.166667
80 1 0 0.583333 0.25
97 1 0 0.666667 0
98 1 0.0416667 0.75 0
99 1 0.0416667 0.666667 0.0833333
100 1 0 0.75 0.0833333
101 1 0 0.666667 0.166667
102 1 0.0416667 0.75 0.166667
103 1 0.0416667 0.666667 0.25
104 1 0 0.75 0.25
220 1 0.0833333 0.583333 0.0833333
224 1 0.0833333 0.583333 0.25
241 1 0.0833333 0.666667 0
244 1 0.0833333 0.75 0.0833333
245 1 0.0833333 0.666667 0.166667
248 1 0.0833333 0.75 0.25
218 1 0.125 0.583333 0
222 1 0.125 0.583333 0.166667
242 1 0.125 0.75 0
243 1 0.125 0.666667 0.0833333
246 1 0.125 0.75 0.166667
247 1 0.125 0.666667 0.25
362 1 0.208333 0.583333 0
364 1 0.166667 0.583333 0.0833333
366 1 0.208333 0.583333 0.166667
368 1 0.166667 0.583333 0.25
385 1 0.166667 0.666667 0
386 1 0.208333 0.75 0
387 1 0.208333 0.666667 0.0833333
388 1 0.166667 0.75 0.0833333
389 1 0.166667 0.666667 0.166667
390 1 0.208333 0.75 0.166667
391 1 0.208333 0.666667 0.25
392 1 0.166667 0.75 0.25
506 1 0.291667 0.583333 0
508 1 0.25 0.583333 0.0833333
510 1 0.291667 0.583333 0.166667
512 1 0.25 0.583333 0.25
529 1 0.25 0.666667 0
530 1 0.291667 0.75 0
531 1 0.291667 0.666667 0.0833333
532 1 0.25 0.75 0.0833333
533 1 0.25 0.666667 0.166667
534 1 0.291667 0.75 0.166667
535 1 0.291667 0.666667 0.25
536 1 0.25 0.75 0.25
650 1 0.375 0.583333 0
652 1 0.333333 0.583333 0.0833333
654 1 0.375 0.583333 0.166667
656 1 0.333333 0.583333 0.25
673 1 0.333333 0.666667 0
674 1 0.375 0.75 0
675 1 0.375 0.666667 0.0833333
676 1 0.333333 0.75 0.0833333
677 1 0.333333 0.666667 0.166667
678 1 0.375 0.75 0.166667
679 1 0.375 0.666667 0.25
680 1 0.333333 0.75 0.25
796 1 0.416667 0.583333 0.0833333
800 1 0.416667 0.583333 0.25
817 1 0.416667 0.666667 0
820 1 0.416667 0.75 0.0833333
821 1 0.416667 0.666667 0.166667
824 1 0.416667 0.75 0.25
794 1 0.458333 0.583333 0
798 1 0.458333 0.583333 0.166667
818 1 0.458333 0.75 0
819 1 0.458333 0.666667 0.0833333
822 1 0.458333 0.75 0.166667
823 1 0.458333 0.666667 0.25
121 1 0 0.833333 0
122 1 0.0416667 0.916667 0
123 1 0.0416667 0.833333 0.0833333
124 1 0 0.916667 0.0833333
125 1 0 0.833333 0.166667
126 1 0.0416667 0.916667 0.166667
127 1 0.0416667 0.833333 0.25
128 1 0 0.916667 0.25
265 1 0.0833333 0.833333 0
268 1 0.0833333 0.916667 0.0833333
269 1 0.0833333 0.833333 0.166667
272 1 0.0833333 0.916667 0.25
266 1 0.125 0.916667 0
267 1 0.125 0.833333 0.0833333
270 1 0.125 0.916667 0.166667
271 1 0.125 0.833333 0.25
409 1 0.166667 0.833333 0
410 1 0.208333 0.916667 0
411 1 0.208333 0.833333 0.0833333
412 1 0.166667 0.916667 0.0833333
413 1 0.166667 0.833333 0.166667
414 1 0.208333 0.916667 0.166667
415 1 0.208333 0.833333 0.25
416 1 0.166667 0.916667 0.25
553 1 0.25 0.833333 0
554 1 0.291667 0.916667 0
555 1 0.291667 0.833333 0.0833333
556 1 0.25 0.916667 0.0833333
557 1 0.25 0.833333 0.166667
558 1 0.291667 0.916667 0.166667
559 1 0.291667 0.833333 0.25
560 1 0.25 0.916667 0.25
697 1 0.333333 0.833333 0
698 1 0.375 0.916667 0
699 1 0.375 0.833333 0.0833333
700 1 0.333333 0.916667 0.0833333
701 1 0.333333 0.833333 0.166667
702 1 0.375 0.916667 0.166667
703 1 0.375 0.833333 0.25
704 1 0.333333 0.916667 0.25
841 1 0.416667 0.833333 0
844 1 0.416667 0.916667 0.0833333
845 1 0.416667 0.833333 0.166667
848 1 0.416667 0.916667 0.25
842 1 0.458333 0.916667 0
843 1 0.458333 0.833333 0.0833333
846 1 0.458333 0.916667 0.166667
847 1 0.458333 0.833333 0.25
9 1 0 0 0.333333
10 1 0.0416667 0.0833333 0.333333
11 1 0.0416667 0 0.416667
12 1 0 0.0833333 0.416667
13 1 0 0 0.5
14 1 0.0416667 0.0833333 0.5
33 1 0 0.166667 0.333333
34 1 0.0416667 0.25 0.333333
35 1 0.0416667 0.166667 0.416667
36 1 0 0.25 0.416667
37 1 0 0.166667 0.5
38 1 0.0416667 0.25 0.5
153 1 0.0833333 0 0.333333
156 1 0.0833333 0.0833333 0.416667
157 1 0.0833333 0 0.5
177 1 0.0833333 0.166667 0.333333
180 1 0.0833333 0.25 0.416667
181 1 0.0833333 0.166667 0.5
154 1 0.125 0.0833333 0.333333
155 1 0.125 0 0.416667
158 1 0.125 0.0833333 0.5
178 1 0.125 0.25 0.333333
179 1 0.125 0.166667 0.416667
182 1 0.125 0.25 0.5
297 1 0.166667 0 0.333333
298 1 0.208333 0.0833333 0.333333
299 1 0.208333 0 0.416667
300 1 0.166667 0.0833333 0.416667
301 1 0.166667 0 0.5
302 1 0.208333 0.0833333 0.5
321 1 0.166667 0.166667 0.333333
322 1 0.208333 0.25 0.333333
323 1 0.208333 0.166667 0.416667
324 1 0.166667 0.25 0.416667
325 1 0.166667 0.166667 0.5
326 1 0.208333 0.25 0.5
441 1 0.25 0 0.333333
442 1 0.291667 0.0833333 0.333333
443 1 0.291667 0 0.416667
444 1 0.25 0.0833333 0.416667
445 1 0.25 0 0.5
446 1 0.291667 0.0833333 0.5
465 1 0.25 0.166667 0.333333
466 1 0.291667 0.25 0.333333
467 1 0.291667 0.166667 0.416667
468 1 0.25 0.25 0.416667
469 1 0.25 0.166667 0.5
470 1 0.291667 0.25 0.5
585 1 0.333333 0 0.333333
586 1 0.375 0.0833333 0.333333
587 1 0.375 0 0.416667
588 1 0.333333 0.0833333 0.416667
589 1 0.333333 0 0.5
590 1 0.375 0.0833333 0.5
609 1 0.333333 0.166667 0.333333
610 1 0.375 0.25 0.333333
611 1 0.375 0.166667 0.416667
612 1 0.333333 0.25 0.416667
613 1 0.333333 0.166667 0.5
614 1 0.375 0.25 0.5
729 1 0.416667 0 0.333333
732 1 0.416667 0.0833333 0.416667
733 1 0.416667 0 0.5
753 1 0.416667 0.166667 0.333333
756 1 0.416667 0.25 0.416667
757 1 0.416667 0.166667 0.5
730 1 0.458333 0.0833333 0.333333
731 1 0.458333 0 0.416667
734 1 0.458333 0.0833333 0.5
754 1 0.458333 0.25 0.333333
755 1 0.458333 0.166667 0.416667
758 1 0.458333 0.25 0.5
57 1 0 0.333333 0.333333
58 1 0.0416667 0.416667 0.333333
59 1 0.0416667 0.333333 0.416667
60 1 0 0.416667 0.416667
61 1 0 0.333333 0.5
62 1 0.0416667 0.416667 0.5
81 1 0 0.5 0.333333
83 1 0.0416667 0.5 0.416667
85 1 0 0.5 0.5
201 1 0.0833333 0.333333 0.333333
204 1 0.0833333 0.416667 0.416667
205 1 0.0833333 0.333333 0.5
225 1 0.0833333 0.5 0.333333
229 1 0.0833333 0.5 0.5
202 1 0.125 0.416667 0.333333
203 1 0.125 0.333333 0.416667
206 1 0.125 0.416667 0.5
227 1 0.125 0.5 0.416667
345 1 0.166667 0.333333 0.333333
346 1 0.208333 0.416667 0.333333
347 1 0.208333 0.333333 0.416667
348 1 0.166667 0.416667 0.416667
349 1 0.166667 0.333333 0.5
350 1 0.208333 0.416667 0.5
369 1 0.166667 0.5 0.333333
371 1 0.208333 0.5 0.416667
373 1 0.166667 0.5 0.5
489 1 0.25 0.333333 0.333333
490 1 0.291667 0.416667 0.333333
491 1 0.291667 0.333333 0.416667
492 1 0.25 0.416667 0.416667
493 1 0.25 0.333333 0.5
494 1 0.291667 0.416667 0.5
513 1 0.25 0.5 0.333333
515 1 0.291667 0.5 0.416667
517 1 0.25 0.5 0.5
633 1 0.333333 0.333333 0.333333
634 1 0.375 0.416667 0.333333
635 1 0.375 0.333333 0.416667
636 1 0.333333 0.416667 0.416667
637 1 0.333333 0.333333 0.5
638 1 0.375 0.416667 0.5
657 1 0.333333 0.5 0.333333
659 1 0.375 0.5 0.416667
661 1 0.333333 0.5 0.5
777 1 0.416667 0.333333 0.333333
780 1 0.416667 0.416667 0.416667
781 1 0.416667 0.333333 0.5
801 1 0.416667 0.5 0.333333
805 1 0.416667 0.5 0.5
778 1 0.458333 0.416667 0.333333
779 1 0.458333 0.333333 0.416667
782 1 0.458333 0.416667 0.5
803 1 0.458333 0.5 0.416667
82 1 0.0416667 0.583333 0.333333
84 1 0 0.583333 0.416667
86 1 0.0416667 0.583333 0.5
105 1 0 0.666667 0.333333
106 1 0.0416667 0.75 0.333333
107 1 0.0416667 0.666667 0.416667
108 1 0 0.75 0.416667
109 1 0 0.666667 0.5
110 1 0.0416667 0.75 0.5
228 1 0.0833333 0.583333 0.416667
249 1 0.0833333 0.666667 0.333333
252 1 0.0833333 0.75 0.416667
253 1 0.0833333 0.666667 0.5
226 1 0.125 0.583333 0.333333
230 1 0.125 0.583333 0.5
250 1 0.125 0.75 0.333333
251 1 0.125 0.666667 0.416667
254 1 0.125 0.75 0.5
370 1 0.208333 0.583333 0.333333
372 1 0.166667 0.583333 0.416667
374 1 0.208333 0.583333 0.5
393 1 0.166667 0.666667 0.333333
394 1 0.208333 0.75 0.333333
395 1 0.208333 0.666667 0.416667
396 1 0.166667 0.75 0.416667
397 1 0.166667 0.666667 0.5
398 1 0.208333 0.75 0.5
514 1 0.291667 0.583333 0.333333
516 1 0.25 0.583333 0.416667
518 1 0.291667 0.583333 0.5
537 1 0.25 0.666667 0.333333
538 1 0.291667 0.75 0.333333
539 1 0.291667 0.666667 0.416667
540 1 0.25 0.75 0.416667
541 1 0.25 0.666667 0.5
542 1 0.291667 0.75 0.5
658 1 0.375 0.583333 0.333333
660 1 0.333333 0.583333 0.416667
662 1 0.375 0.583333 0.5
681 1 0.333333 0.666667 0.333333
682 1 0.375 0.75 0.333333
683 1 0.375 0.666667 0.416667
684 1 0.333333 0.75 0.416667
685 1 0.333333 0.666667 0.5
686 1 0.375 0.75 0.5
804 1 0.416667 0.583333 0.416667
825 1 0.416667 0.666667 0.333333
828 1 0.416667 0.75 0.416667
829 1 0.416667 0.666667 0.5
802 1 0.458333 0.583333 0.333333
806 1 0.458333 0.583333 0.5
826 1 0.458333 0.75 0.333333
827 1 0.458333 0.666667 0.416667
830 1 0.458333 0.75 0.5
129 1 0 0.833333 0.333333
130 1 0.0416667 0.916667 0.333333
131 1 0.0416667 0.833333 0.416667
132 1 0 0.916667 0.416667
133 1 0 0.833333 0.5
134 1 0.0416667 0.916667 0.5
273 1 0.0833333 0.833333 0.333333
276 1 0.0833333 0.916667 0.416667
277 1 0.0833333 0.833333 0.5
274 1 0.125 0.916667 0.333333
275 1 0.125 0.833333 0.416667
278 1 0.125 0.916667 0.5
417 1 0.166667 0.833333 0.333333
418 1 0.208333 0.916667 0.333333
419 1 0.208333 0.833333 0.416667
420 1 0.166667 0.916667 0.416667
421 1 0.166667 0.833333 0.5
422 1 0.208333 0.916667 0.5
561 1 0.25 0.833333 0.333333
562 1 0.291667 0.916667 0.333333
563 1 0.291667 0.833333 0.416667
564 1 0.25 0.916667 0.416667
565 1 0.25 0.833333 0.5
566 1 0.291667 0.916667 0.5
705 1 0.333333 0.833333 0.333333
706 1 0.375 0.916667 0.333333
707 1 0.375 0.833333 0.416667
708 1 0.333333 0.916667 0.416667
709 1 0.333333 0.833333 0.5
710 1 0.375 0.916667 0.5
849 1 0.416667 0.833333 0.333333
852 1 0.416667 0.916667 0.416667
853 1 0.416667 0.833333 0.5
850 1 0.458333 0.916667 0.333333
851 1 0.458333 0.833333 0.416667
854 1 0.458333 0.916667 0.5
15 1 0.0416667 0 0.583333
16 1 0 0.0833333 0.583333
17 1 0 0 0.666667
18 1 0.0416667 0.0833333 0.666667
19 1 0.0416667 0 0.75
20 1 0 0.0833333 0.75
39 1 0.0416667 0.166667 0.583333
40 1 0 0.25 0.583333
41 1 0 0.166667 0.666667
42 1 0.0416667 0.25 0.666667
43 1 0.0416667 0.166667 0.75
44 1 0 0.25 0.75
160 1 0.0833333 0.0833333 0.583333
161 1 0.0833333 0 0.666667
164 1 0.0833333 0.0833333 0.75
184 1 0.0833333 0.25 0.583333
185 1 0.0833333 0.166667 0.666667
188 1 0.0833333 0.25 0.75
159 1 0.125 0 0.583333
162 1 0.125 0.0833333 0.666667
163 1 0.125 0 0.75
183 1 0.125 0.166667 0.583333
186 1 0.125 0.25 0.666667
187 1 0.125 0.166667 0.75
303 1 0.208333 0 0.583333
304 1 0.166667 0.0833333 0.583333
305 1 0.166667 0 0.666667
306 1 0.208333 0.0833333 0.666667
307 1 0.208333 0 0.75
308 1 0.166667 0.0833333 0.75
327 1 0.208333 0.166667 0.583333
328 1 0.166667 0.25 0.583333
329 1 0.166667 0.166667 0.666667
330 1 0.208333 0.25 0.666667
331 1 0.208333 0.166667 0.75
332 1 0.166667 0.25 0.75
447 1 0.291667 0 0.583333
448 1 0.25 0.0833333 0.583333
449 1 0.25 0 0.666667
450 1 0.291667 0.0833333 0.666667
451 1 0.291667 0 0.75
452 1 0.25 0.0833333 0.75
471 1 0.291667 0.166667 0.583333
472 1 0.25 0.25 0.583333
473 1 0.25 0.166667 0.666667
474 1 0.291667 0.25 0.666667
475 1 0.291667 0.166667 0.75
476 1 0.25 0.25 0.75
591 1 0.375 0 0.583333
592 1 0.333333 0.0833333 0.583333
593 1 0.333333 0 0.666667
594 1 0.375 0.0833333 0.666667
595 1 0.375 0 0.75
596 1 0.333333 0.0833333 0.75
615 1 0.375 0.166667 0.583333
616 1 0.333333 0.25 0.583333
617 1 0.333333 0.166667 0.666667
618 1 0.375 0.25 0.666667
619 1 0.375 0.166667 0.75
620 1 0.333333 0.25 0.75
736 1 0.416667 0.0833333 0.583333
737 1 0.416667 0 0.666667
740 1 0.416667 0.0833333 0.75
760 1 0.416667 0.25 0.583333
761 1 0.416667 0.166667 0.666667
764 1 0.416667 0.25 0.75
735 1 0.458333 0 0.583333
738 1 0.458333 0.0833333 0.666667
739 1 0.458333 0 0.75
759 1 0.458333 0.166667 0.583333
762 1 0.458333 0.25 0.666667
763 1 0.458333 0.166667 0.75
63 1 0.0416667 0.333333 0.583333
64 1 0 0.416667 0.583333
65 1 0 0.333333 0.666667
66 1 0.0416667 0.416667 0.666667
67 1 0.0416667 0.333333 0.75
68 1 0 0.416667 0.75
87 1 0.0416667 0.5 0.583333
89 1 0 0.5 0.666667
91 1 0.0416667 0.5 0.75
208 1 0.0833333 0.416667 0.583333
209 1 0.0833333 0.333333 0.666667
212 1 0.0833333 0.416667 0.75
233 1 0.0833333 0.5 0.666667
207 1 0.125 0.333333 0.583333
210 1 0.125 0.416667 0.666667
211 1 0.125 0.333333 0.75
231 1 0.125 0.5 0.583333
235 1 0.125 0.5 0.75
351 1 0.208333 0.333333 0.583333
352 1 0.166667 0.416667 0.583333
353 1 0.166667 0.333333 0.666667
354 1 0.208333 0.416667 0.666667
355 1 0.208333 0.333333 0.75
356 1 0.166667 0.416667 0.75
375 1 0.208333 0.5 0.583333
377 1 0.166667 0.5 0.666667
379 1 0.208333 0.5 0.75
495 1 0.291667 0.333333 0.583333
496 1 0.25 0.416667 0.583333
497 1 0.25 0.333333 0.666667
498 1 0.291667 0.416667 0.666667
499 1 0.291667 0.333333 0.75
500 1 0.25 0.416667 0.75
519 1 0.291667 0.5 0.583333
521 1 0.25 0.5 0.666667
523 1 0.291667 0.5 0.75
639 1 0.375 0.333333 0.583333
640 1 0.333333 0.416667 0.583333
641 1 0.333333 0.333333 0.666667
642 1 0.375 0.416667 0.666667
643 1 0.375 0.333333 0.75
644 1 0.333333 0.416667 0.75
663 1 0.375 0.5 0.583333
665 1 0.333333 0.5 0.666667
667 1 0.375 0.5 0.75
784 1 0.416667 0.416667 0.583333
785 1 0.416667 0.333333 0.666667
788 1 0.416667 0.416667 0.75
809 1 0.416667 0.5 0.666667
783 1 0.458333 0.333333 0.583333
786 1 0.458333 0.416667 0.666667
787 1 0.458333 0.333333 0.75
807 1 0.458333 0.5 0.583333
811 1 0.458333 0.5 0.75
88 1 0 0.583333 0.583333
90 1 0.0416667 0.583333 0.666667
92 1 0 0.583333 0.75
111 1 0.0416667 0.666667 0.583333
112 1 0 0.75 0.583333
113 1 0 0.666667 0.666667
114 1 0.0416667 0.75 0.666667
115 1 0.0416667 0.666667 0.75
116 1 0 0.75 0.75
232 1 0.0833333 0.583333 0.583333
236 1 0.0833333 0.583333 0.75
256 1 0.0833333 0.75 0.583333
257 1 0.0833333 0.666667 0.666667
260 1 0.0833333 0.75 0.75
234 1 0.125 0.583333 0.666667
255 1 0.125 0.666667 0.583333
258 1 0.125 0.75 0.666667
259 1 0.125 0.666667 0.75
376 1 0.166667 0.583333 0.583333
378 1 0.208333 0.583333 0.666667
380 1 0.166667 0.583333 0.75
399 1 0.208333 0.666667 0.583333
400 1 0.166667 0.75 0.583333
401 1 0.166667 0.666667 0.666667
402 1 0.208333 0.75 0.666667
403 1 0.208333 0.666667 0.75
404 1 0.166667 0.75 0.75
520 1 0.25 0.583333 0.583333
522 1 0.291667 0.583333 0.666667
524 1 0.25 0.583333 0.75
543 1 0.291667 0.666667 0.583333
544 1 0.25 0.75 0.583333
545 1 0.25 0.666667 0.666667
546 1 0.291667 0.75 0.666667
547 1 0.291667 0.666667 0.75
548 1 0.25 0.75 0.75
664 1 0.333333 0.583333 0.583333
666 1 0.375 0.583333 0.666667
668 1 0.333333 0.583333 0.75
687 1 0.375 0.666667 0.583333
688 1 0.333333 0.75 0.583333
689 1 0.333333 0.666667 0.666667
690 1 0.375 0.75 0.666667
691 1 0.375 0.666667 0.75
692 1 0.333333 0.75 0.75
808 1 0.416667 0.583333 0.583333
812 1 0.416667 0.583333 0.75
832 1 0.416667 0.75 0.583333
833 1 0.416667 0.666667 0.666667
836 1 0.416667 0.75 0.75
810 1 0.458333 0.583333 0.666667
831 1 0.458333 0.666667 0.583333
834 1 0.458333 0.75 0.666667
835 1 0.458333 0.666667 0.75
135 1 0.0416667 0.833333 0.583333
136 1 0 0.916667 0.583333
137 1 0 0.833333 0.666667
138 1 0.0416667 0.916667 0.666667
139 1 0.0416667 0.833333 0.75
140 1 0 0.916667 0.75
280 1 0.0833333 0.916667 0.583333
281 1 0.0833333 0.833333 0.666667
284 1 0.0833333 0.916667 0.75
279 1 0.125 0.833333 0.583333
282 1 0.125 0.916667 0.666667
283 1 0.125 0.833333 0.75
423 1 0.208333 0.833333 0.583333
424 1 0.166667 0.916667 0.583333
425 1 0.166667 0.833333 0.666667
426 1 0.208333 0.916667 0.666667
427 1 0.208333 0.833333 0.75
428 1 0.166667 0.916667 0.75
567 1 0.291667 0.833333 0.583333
568 1 0.25 0.916667 0.583333
569 1 0.25 0.833333 0.666667
570 1 0.291667 0.916667 0.666667
571 1 0.291667 0.833333 0.75
572 1 0.25 0.916667 0.75
711 1 0.375 0.833333 0.583333
712 1 0.333333 0.916667 0.583333
713 1 0.333333 0.833333 0.666667
714 1 0.375 0.916667 0.666667
715 1 0.375 0.833333 0.75
716 1 0.333333 0.916667 0.75
856 1 0.416667 0.916667 0.583333
857 1 0.416667 0.833333 0.666667
860 1 0.416667 0.916667 0.75
855 1 0.458333 0.833333 0.583333
858 1 0.458333 0.916667 0.666667
859 1 0.458333 0.833333 0.75
21 1 0 0 0.833333
22 1 0.0416667 0.0833333 0.833333
23 1 0.0416667 0 0.916667
24 1 0 0.0833333 0.916667
45 1 0 0.166667 0.833333
46 1 0.0416667 0.25 0.833333
47 1 0.0416667 0.166667 0.916667
48 1 0 0.25 0.916667
165 1 0.0833333 0 0.833333
168 1 0.0833333 0.0833333 0.916667
189 1 0.0833333 0.166667 0.833333
192 1 0.0833333 0.25 0.916667
166 1 0.125 0.0833333 0.833333
167 1 0.125 0 0.916667
190 1 0.125 0.25 0.833333
191 1 0.125 0.166667 0.916667
309 1 0.166667 0 0.833333
310 1 0.208333 0.0833333 0.833333
311 1 0.208333 0 0.916667
312 1 0.166667 0.0833333 0.916667
333 1 0.166667 0.166667 0.833333
334 1 0.208333 0.25 0.833333
335 1 0.208333 0.166667 0.916667
336 1 0.166667 0.25 0.916667
453 1 0.25 0 0.833333
454 1 0.291667 0.0833333 0.833333
455 1 0.291667 0 0.916667
456 1 0.25 0.0833333 0.916667
477 1 0.25 0.166667 0.833333
478 1 0.291667 0.25 0.833333
479 1 0.291667 0.166667 0.916667
480 1 0.25 0.25 0.916667
597 1 0.333333 0 0.833333
598 1 0.375 0.0833333 0.833333
599 1 0.375 0 0.916667
600 1 0.333333 0.0833333 0.916667
621 1 0.333333 0.166667 0.833333
622 1 0.375 0.25 0.833333
623 1 0.375 0.166667 0.916667
624 1 0.333333 0.25 0.916667
741 1 0.416667 0 0.833333
744 1 0.416667 0.0833333 0.916667
765 1 0.416667 0.166667 0.833333
768 1 0.416667 0.25 0.916667
742 1 0.458333 0.0833333 0.833333
743 1 0.458333 0 0.916667
766 1 0.458333 0.25 0.833333
767 1 0.458333 0.166667 0.916667
69 1 0 0.333333 0.833333
70 1 0.0416667 0.416667 0.833333
71 1 0.0416667 0.333333 0.916667
72 1 0 0.416667 0.916667
93 1 0 0.5 0.833333
95 1 0.0416667 0.5 0.916667
213 1 0.0833333 0.333333 0.833333
216 1 0.0833333 0.416667 0.916667
237 1 0.0833333 0.5 0.833333
214 1 0.125 0.416667 0.833333
215 1 0.125 0.333333 0.916667
239 1 0.125 0.5 0.916667
357 1 0.166667 0.333333 0.833333
358 1 0.208333 0.416667 0.833333
359 1 0.208333 0.333333 0.916667
360 1 0.166667 0.416667 0.916667
381 1 0.166667 0.5 0.833333
383 1 0.208333 0.5 0.916667
501 1 0.25 0.333333 0.833333
502 1 0.291667 0.416667 0.833333
503 1 0.291667 0.333333 0.916667
504 1 0.25 0.416667 0.916667
525 1 0.25 0.5 0.833333
527 1 0.291667 0.5 0.916667
645 1 0.333333 0.333333 0.833333
646 1 0.375 0.416667 0.833333
647 1 0.375 0.333333 0.916667
648 1 0.333333 0.416667 0.916667
669 1 0.333333 0.5 0.833333
671 1 0.375 0.5 0.916667
789 1 0.416667 0.333333 0.833333
792 1 0.416667 0.416667 0.916667
813 1 0.416667 0.5 0.833333
790 1 0.458333 0.416667 0.833333
791 1 0.458333 0.333333 0.916667
815 1 0.458333 0.5 0.916667
94 1 0.0416667 0.583333 0.833333
96 1 0 0.583333 0.916667
117 1 0 0.666667 0.833333
118 1 0.0416667 0.75 0.833333
119 1 0.0416667 0.666667 0.916667
120 1 0 0.75 0.916667
240 1 0.0833333 0.583333 0.916667
261 1 0.0833333 0.666667 0.833333
264 1 0.0833333 0.75 0.916667
238 1 0.125 0.583333 0.833333
262 1 0.125 0.75 0.833333
263 1 0.125 0.666667 0.916667
382 1 0.208333 0.583333 0.833333
384 1 0.166667 0.583333 0.916667
405 1 0.166667 0.666667 0.833333
406 1 0.208333 0.75 0.833333
407 1 0.208333 0.666667 0.916667
408 1 0.166667 0.75 0.916667
526 1 0.291667 0.583333 0.833333
528 1 0.25 0.583333 0.916667
549 1 0.25 0.666667 0.833333
550 1 0.291667 0.75 0.833333
551 1 0.291667 0.666667 0.916667
552 1 0.25 0.75 0.916667
670 1 0.375 0.583333 0.833333
672 1 0.333333 0.583333 0.916667
693 1 0.333333 0.666667 0.833333
694 1 0.375 0.75 0.833333
695 1 0.375 0.666667 0.916667
696 1 0.333333 0.75 0.916667
816 1 0.416667 0.583333 0.916667
837 1 0.416667 0.666667 0.833333
840 1 0.416667 0.75 0.916667
814 1 0.458333 0.583333 0.833333
838 1 0.458333 0.75 0.833333
839 1 0.458333 0.666667 0.916667
141 1 0 0.833333 0.833333
142 1 0.0416667 0.916667 0.833333
143 1 0.0416667 0.833333 0.916667
144 1 0 0.916667 0.916667
285 1 0.0833333 0.833333 0.833333
288 1 0.0833333 0.916667 0.916667
286 1 0.125 0.916667 0.833333
287 1 0.125 0.833333 0.916667
429 1 0.166667 0.833333 0.833333
430 1 0.208333 0.916667 0.833333
431 1 0.208333 0.833333 0.916667
432 1 0.166667 0.916667 0.916667
573 1 0.25 0.833333 0.833333
574 1 0.291667 0.916667 0.833333
575 1 0.291667 0.833333 0.916667
576 1 0.25 0.916667 0.916667
717 1 0.333333 0.833333 0.833333
718 1 0.375 0.916667 0.833333
719 1 0.375 0.833333 0.916667
720 1 0.333333 0.916667 0.916667
861 1 0.416667 0.833333 0.833333
864 1 0.416667 0.916667 0.916667
862 1 0.458333 0.916667 0.833333
863 1 0.458333 0.833333 0.916667
ITEM: TIMESTEP
5000
ITEM: NUMBER OF ATOMS
864
ITEM: BOX BOUNDS pp pp pp
0.0000000000000000e+00 1.5119052598738476e+01
0.0000000000000000e+00 7.5595262993692378e+00
0.0000000000000000e+00 7.5595262993692378e+00
ITEM: ATOMS id type xs ys zs
147 1 0.115434 0.0971364 0.11273
316 1 0.0658962 0.174768 0.193857
312 1 0.11256 0.059566 0.954422
174 1 0.0237878 0.0649094 0.194557
171 1 0.0630558 0.11982 0.0534173
148 1 0.00118194 0.0437055 0.0704553
151 1 0.0743286 0.0819372 0.318577
293 1 0.176307 0.0684371 0.157711
290 1 0.185902 0.0907868 0.0160384
320 1 0.222149 0.116274 0.239204
314 1 0.167908 0.178555 0.148926
294 1 0.235036 0.114025 0.123398
315 1 0.188743 0.922692 0.0486573
318 1 0.212966 0.22092 0.0742153
436 1 0.29891 0.00831355 0.107917
460 1 0.270539 0.223639 0.156433
461 1 0.324548 0.250874 0.240974
457 1 0.240088 0.147326 0.991599
438 1 0.340255 0.113781 0.177434
459 1 0.338841 0.0732461 0.0412573
580 1 0.3908 0.029482 0.0983159
605 1 0.306589 0.18523 0.0820947
581 1 0.412011 0.962394 0.215065
604 1 0.395227 0.189301 0.0468001
584 1 0.401029 0.113867 0.225426
578 1 0.453449 0.0864053 0.0563939
582 1 0.439784 0.976385 0.331113
603 1 0.441119 0.189716 0.985073
745 1 0.544414 0.105324 0.108452
607 1 0.468885 0.201543 0.104434
724 1 0.637329 0.032331 0.215951
728 1 0.50313 0.0692462 0.234165
748 1 0.586658 0.185982 0.0108956
750 1 0.633856 0.167763 0.0809026
752 1 0.590838 0.127669 0.220396
842 1 0.617558 0.000743265 0.0679246
722 1 0.711724 0.0310021 0.190013
726 1 0.768407 0.146264 0.185757
747 1 0.648815 0.204408 0.267174
29 1 0.780482 0.182087 0.0646909
746 1 0.647549 0.269092 0.946946
4 1 0.763096 0.983969 0.119293
771 1 0.705292 0.196693 0.109904
1 1 0.700402 0.0663017 0.0671889
5 1 0.91291 0.999678 0.239389
2 1 0.903155 0.139013 0.0981914
6 1 0.819783 0.106944 0.155057
3 1 0.875894 0.990717 0.0199157
28 1 0.831783 0.213917 0.945343
25 1 0.811138 0.0460823 0.0242334
51 1 0.912458 0.267198 0.1323
173 1 0.890962 0.19892 0.218709
150 1 0.958383 0.0341999 0.156943
175 1 0.0062445 0.204565 0.238449
169 1 0.0130921 0.189622 0.110143
337 1 0.104028 0.22955 0.111562
340 1 0.0721362 0.423281 0.127079
341 1 0.103172 0.392039 0.220862
344 1 0.0454233 0.427195 0.234153
365 1 0.130167 0.486182 0.226893
195 1 0.0378485 0.317095 0.117566
199 1 0.0712114 0.274377 0.241957
239 1 0.0503532 0.378942 0.0189878
170 1 0.0640457 0.254652 0.0160104
317 1 0.133196 0.253054 0.225574
361 1 0.155896 0.501445 0.986041
338 1 0.206603 0.384169 0.0204576
339 1 0.15134 0.353955 0.126251
343 1 0.20661 0.302353 0.16704
359 1 0.155004 0.256476 0.0385746
464 1 0.296345 0.363991 0.268718
342 1 0.262303 0.349013 0.135058
485 1 0.305568 0.447239 0.140286
488 1 0.279985 0.481974 0.260896
462 1 0.314522 0.345947 0.999204
509 1 0.22587 0.43874 0.196965
508 1 0.264941 0.429613 0.033491
486 1 0.329031 0.34042 0.168425
483 1 0.423003 0.367715 0.111436
482 1 0.367257 0.43698 0.095616
629 1 0.377952 0.31509 0.048299
653 1 0.417029 0.490938 0.159534
608 1 0.375515 0.250694 0.173616
749 1 0.531434 0.223248 0.166431
625 1 0.47178 0.312049 0.0164323
628 1 0.452541 0.448185 0.048575
606 1 0.47941 0.327246 0.155264
630 1 0.483179 0.471029 0.169264
632 1 0.438188 0.401756 0.243639
631 1 0.525866 0.393298 0.218172
626 1 0.53968 0.388983 0.0836139
627 1 0.601384 0.320251 0.00410908
772 1 0.608768 0.416252 0.162936
770 1 0.591417 0.253752 0.124483
795 1 0.690895 0.438223 0.00891316
780 1 0.642948 0.45318 0.262919
776 1 0.651608 0.322923 0.227159
774 1 0.677361 0.310283 0.0942816
53 1 0.749048 0.357203 0.116948
798 1 0.693733 0.439617 0.174888
775 1 0.814171 0.245879 0.166098
751 1 0.791241 0.29409 0.0381042
32 1 0.845519 0.213064 0.0652089
30 1 0.827911 0.411084 0.206331
50 1 0.811942 0.41002 0.0801951
54 1 0.88467 0.501621 0.0493817
177 1 0.866983 0.310655 0.263728
172 1 0.977293 0.315304 0.105234
216 1 0.926386 0.373252 0.0321858
176 1 0.951526 0.26036 0.225785
196 1 0.0108523 0.490675 0.115601
198 1 0.995454 0.401036 0.185904
197 1 0.919847 0.420799 0.171675
193 1 0.00190422 0.27233 0.0101726
217 1 0.953582 0.483023 0.0759335
219 1 0.0754065 0.555024 0.173307
218 1 0.0888329 0.610427 0.0386444
364 1 0.124906 0.520062 0.0881639
389 1 0.0999858 0.67308 0.139433
250 1 0.0274522 0.701599 0.244404
392 1 0.123804 0.730163 0.243278
388 1 0.109137 0.723012 0.0183154
391 1 0.169571 0.606572 0.0608417
363 1 0.175042 0.468388 0.126581
390 1 0.181225 0.705011 0.126104
532 1 0.221743 0.524033 0.0292256
415 1 0.218592 0.727505 0.22517
552 1 0.233421 0.768887 0.0120818
366 1 0.240748 0.739726 0.116442
533 1 0.26334 0.536291 0.14789
512 1 0.319312 0.686386 0.238419
531 1 0.327615 0.561191 0.148757
530 1 0.313541 0.718188 0.111515
510 1 0.390975 0.536127 0.283828
507 1 0.388929 0.532369 0.0409415
534 1 0.337586 0.627409 0.0470074
677 1 0.387315 0.604604 0.139788
673 1 0.450082 0.580036 0.0898019
675 1 0.506487 0.732219 0.0643081
651 1 0.506825 0.545117 0.0595089
654 1 0.515364 0.59636 0.243099
676 1 0.389598 0.784972 0.222311
797 1 0.556928 0.496052 0.178147
793 1 0.603751 0.519362 0.0765915
796 1 0.553116 0.625208 0.111711
800 1 0.641795 0.557834 0.186613
817 1 0.564427 0.684569 0.996763
823 1 0.614549 0.660323 0.0919565