ITEM: TIMESTEP
0
ITEM: NUMBER OF ATOMS
256
ITEM: BOX BOUNDS pp pp pp
0.0000000000000000e+00 1.0079368399158984e+01
0.0000000000000000e+00 5.0396841995794919e+00
0.0000000000000000e+00 5.0396841995794919e+00
ITEM: ATOMS id type xs ys zs
1 1 0 0 0
2 1 0.0625 0.125 0
3 1 0.0625 0 0.125
4 1 0 0.125 0.125
5 1 0 0 0.25
6 1 0.0625 0.125 0.25
17 1 0 0.25 0
19 1 0.0625 0.25 0.125
21 1 0 0.25 0.25
65 1 0.125 0 0
68 1 0.125 0.125 0.125
69 1 0.125 0 0.25
81 1 0.125 0.25 0
85 1 0.125 0.25 0.25
66 1 0.1875 0.125 0
67 1 0.1875 0 0.125
70 1 0.1875 0.125 0.25
83 1 0.1875 0.25 0.125
129 1 0.25 0 0
130 1 0.3125 0.125 0
131 1 0.3125 0 0.125
132 1 0.25 0.125 0.125
133 1 0.25 0 0.25
134 1 0.3125 0.125 0.25
145 1 0.25 0.25 0
147 1 0.3125 0.25 0.125
149 1 0.25 0.25 0.25
193 1 0.375 0 0
194 1 0.4375 0.125 0
195 1 0.4375 0 0.125
196 1 0.375 0.125 0.125
197 1 0.375 0 0.25
198 1 0.4375 0.125 0.25
209 1 0.375 0.25 0
211 1 0.4375 0.25 0.125
213 1 0.375 0.25 0.25
18 1 0.0625 0.375 0
20 1 0 0.375 0.125
22 1 0.0625 0.375 0.25
33 1 0 0.5 0
34 1 0.0625 0.625 0
35 1 0.0625 0.5 0.125
36 1 0 0.625 0.125
37 1 0 0.5 0.25
38 1 0.0625 0.625 0.25
84 1 0.125 0.375 0.125
97 1 0.125 0.5 0
100 1 0.125 0.625 0.125
101 1 0.125 0.5 0.25
82 1 0.1875 0.375 0
86 1 0.1875 0.375 0.25
98 1 0.1875 0.625 0
99 1 0.1875 0.5 0.125
102 1 0.1875 0.625 0.25
146 1 0.3125 0.375 0
148 1 0.25 0.375 0.125
150 1 0.3125 0.375 0.25
161 1 0.25 0.5 0
162 1 0.3125 0.625 0
163 1 0.3125 0.5 0.125
164 1 0.25 0.625 0.125
165 1 0.25 0.5 0.25
166 1 0.3125 0.625 0.25
210 1 0.4375 0.375 0
212 1 0.375 0.375 0.125
214 1 0.4375 0.375 0.25
225 1 0.375 0.5 0
226 1 0.4375 0.625 0
227 1 0.4375 0.5 0.125
228 1 0.375 0.625 0.125
229 1 0.375 0.5 0.25
230 1 0.4375 0.625 0.25
49 1 0 0.75 0
50 1 0.0625 0.875 0
51 1 0.0625 0.75 0.125
52 1 0 0.875 0.125
53 1 0 0.75 0.25
54 1 0.0625 0.875 0.25
113 1 0.125 0.75 0
116 1 0.125 0.875 0.125
117 1 0.125 0.75 0.25
114 1 0.1875 0.875 0
115 1 0.1875 0.75 0.125
118 1 0.1875 0.875 0.25
177 1 0.25 0.75 0
178 1 0.3125 0.875 0
179 1 0.3125 0.75 0.125
180 1 0.25 0.875 0.125
181 1 0.25 0.75 0.25
182 1 0.3125 0.875 0.25
241 1 0.375 0.75 0
242 1 0.4375 0.875 0
243 1 0.4375 0.75 0.125
244 1 0.375 0.875 0.125
245 1 0.375 0.75 0.25
246 1 0.4375 0.875 0.25
7 1 0.0625 0 0.375
8 1 0 0.125 0.375
9 1 0 0 0.5
10 1 0.0625 0.125 0.5
11 1 0.0625 0 0.625
12 1 0 0.125 0.625
23 1 0.0625 0.25 0.375
25 1 0 0.25 0.5
27 1 0.0625 0.25 0.625
72 1 0.125 0.125 0.375
73 1 0.125 0 0.5
76 1 0.125 0.125 0.625
89 1 0.125 0.25 0.5
71 1 0.1875 0 0.375
74 1 0.1875 0.125 0.5
75 1 0.1875 0 0.625
87 1 0.1875 0.25 0.375
91 1 0.1875 0.25 0.625
135 1 0.3125 0 0.375
136 1 0.25 0.125 0.375
137 1 0.25 0 0.5
138 1 0.3125 0.125 0.5
139 1 0.3125 0 0.625
140 1 0.25 0.125 0.625
151 1 0.3125 0.25 0.375
153 1 0.25 0.25 0.5
155 1 0.3125 0.25 0.625
199 1 0.4375 0 0.375
200 1 0.375 0.125 0.375
201 1 0.375 0 0.5
202 1 0.4375 0.125 0.5
203 1 0.4375 0 0.625
204 1 0.375 0.125 0.625
215 1 0.4375 0.25 0.375
217 1 0.375 0.25 0.5
219 1 0.4375 0.25 0.625
24 1 0 0.375 0.375
26 1 0.0625 0.375 0.5
28 1 0 0.375 0.625
39 1 0.0625 0.5 0.375
40 1 0 0.625 0.375
41 1 0 0.5 0.5
42 1 0.0625 0.625 0.5
43 1 0.0625 0.5 0.625
44 1 0 0.625 0.625
88 1 0.125 0.375 0.375
92 1 0.125 0.375 0.625
104 1 0.125 0.625 0.375
105 1 0.125 0.5 0.5
108 1 0.125 0.625 0.625
90 1 0.1875 0.375 0.5
103 1 0.1875 0.5 0.375
106 1 0.1875 0.625 0.5
107 1 0.1875 0.5 0.625
152 1 0.25 0.375 0.375
154 1 0.3125 0.375 0.5
156 1 0.25 0.375 0.625
167 1 0.3125 0.5 0.375
168 1 0.25 0.625 0.375
169 1 0.25 0.5 0.5
170 1 0.3125 0.625 0.5
171 1 0.3125 0.5 0.625
172 1 0.25 0.625 0.625
216 1 0.375 0.375 0.375
218 1 0.4375 0.375 0.5
220 1 0.375 0.375 0.625
231 1 0.4375 0.5 0.375
232 1 0.375 0.625 0.375
233 1 0.375 0.5 0.5
234 1 0.4375 0.625 0.5
235 1 0.4375 0.5 0.625
236 1 0.375 0.625 0.625
55 1 0.0625 0.75 0.375
56 1 0 0.875 0.375
57 1 0 0.75 0.5
58 1 0.0625 0.875 0.5
59 1 0.0625 0.75 0.625
60 1 0 0.875 0.625
120 1 0.125 0.875 0.375
121 1 0.125 0.75 0.5
124 1 0.125 0.875 0.625
119 1 0.1875 0.75 0.375
122 1 0.1875 0.875 0.5
123 1 0.1875 0.75 0.625
183 1 0.3125 0.75 0.375
184 1 0.25 0.875 0.375
185 1 0.25 0.75 0.5
186 1 0.3125 0.875 0.5
187 1 0.3125 0.75 0.625
188 1 0.25 0.875 0.625
247 1 0.4375 0.75 0.375
248 1 0.375 0.875 0.375
249 1 0.375 0.75 0.5
250 1 0.4375 0.875 0.5
251 1 0.4375 0.75 0.625
252 1 0.375 0.875 0.625
13 1 0 0 0.75
14 1 0.0625 0.125 0.75
15 1 0.0625 0 0.875
16 1 0 0.125 0.875
29 1 0 0.25 0.75
31 1 0.0625 0.25 0.875
77 1 0.125 0 0.75
80 1 0.125 0.125 0.875
93 1 0.125 0.25 0.75
78 1 0.1875 0.125 0.75
79 1 0.1875 0 0.875
95 1 0.1875 0.25 0.875
141 1 0.25 0 0.75
142 1 0.3125 0.125 0.75
143 1 0.3125 0 0.875
144 1 0.25 0.125 0.875
157 1 0.25 0.25 0.75
159 1 0.3125 0.25 0.875
205 1 0.375 0 0.75
206 1 0.4375 0.125 0.75
207 1 0.4375 0 0.875
208 1 0.375 0.125 0.875
221 1 0.375 0.25 0.75
223 1 0.4375 0.25 0.875
30 1 0.0625 0.375 0.75
32 1 0 0.375 0.875
45 1 0 0.5 0.75
46 1 0.0625 0.625 0.75
47 1 0.0625 0.5 0.875
48 1 0 0.625 0.875
96 1 0.125 0.375 0.875
109 1 0.125 0.5 0.75
112 1 0.125 0.625 0.875
94 1 0.1875 0.375 0.75
110 1 0.1875 0.625 0.75
111 1 0.1875 0.5 0.875
158 1 0.3125 0.375 0.75
160 1 0.25 0.375 0.875
173 1 0.25 0.5 0.75
174 1 0.3125 0.625 0.75
175 1 0.3125 0.5 0.875
176 1 0.25 0.625 0.875
222 1 0.4375 0.375 0.75
224 1 0.375 0.375 0.875
237 1 0.375 0.5 0.75
238 1 0.4375 0.625 0.75
239 1 0.4375 0.5 0.875
240 1 0.375 0.625 0.875
61 1 0 0.75 0.75
62 1 0.0625 0.875 0.75
63 1 0.0625 0.75 0.875
64 1 0 0.875 0.875
125 1 0.125 0.75 0.75
128 1 0.125 0.875 0.875
126 1 0.1875 0.875 0.75
127 1 0.1875 0.75 0.875
189 1 0.25 0.75 0.75
190 1 0.3125 0.875 0.75
191 1 0.3125 0.75 0.875
192 1 0.25 0.875 0.875
253 1 0.375 0.75 0.75
254 1 0.4375 0.875 0.75
255 1 0.4375 0.75 0.875
256 1 0.375 0.875 0.875
ITEM: TIMESTEP
10000
ITEM: NUMBER OF ATOMS
256
ITEM: BOX BOUNDS pp pp pp
0.0000000000000000e+00 1.0079368399158984e+01
0.0000000000000000e+00 5.0396841995794919e+00
0.0000000000000000e+00 5.0396841995794919e+00
ITEM: ATOMS id type xs ys zs
68 1 0.0894666 0.136763 0.135483
72 1 0.118722 0.155003 0.333187
81 1 0.070725 0.2966 0.00881729
84 1 0.0817303 0.326182 0.256487
85 1 0.0116793 0.173615 0.289516
86 1 0.184595 0.291166 0.258768
70 1 0.183248 0.111107 0.190163
83 1 0.19116 0.266371 0.0435698
133 1 0.287524 0.0855097 0.19417
148 1 0.272203 0.289859 0.155005
131 1 0.39665 0.0147801 0.0763144
134 1 0.426675 0.177357 0.260997
147 1 0.345648 0.175856 0.0794808
196 1 0.447554 0.208684 0.0154859
150 1 0.363332 0.345246 0.286139
135 1 0.390835 0.979682 0.296585
213 1 0.522715 0.142818 0.163776
198 1 0.606573 0.112621 0.295749
211 1 0.624843 0.286051 0.195783
194 1 0.667272 0.164908 0.0527753
21 1 0.71165 0.178164 0.271022
4 1 0.806039 0.140978 0.178512
20 1 0.825749 0.335045 0.203693
17 1 0.753273 0.294336 0.0672767
19 1 0.988333 0.252945 0.0938627
6 1 0.923696 0.145926 0.177854
22 1 0.929132 0.344586 0.253624
65 1 0.980456 1.00074 0.0287519
100 1 0.10216 0.606457 0.213444
99 1 0.146763 0.44276 0.117834
97 1 0.0641495 0.51429 0.0359213
35 1 0.00824045 0.464347 0.202276
103 1 0.147413 0.476355 0.33018
102 1 0.220069 0.61046 0.15587
161 1 0.247622 0.438978 0.0300952
165 1 0.24586 0.453679 0.260671
163 1 0.332528 0.53486 0.127017
146 1 0.384392 0.364917 0.0776156
162 1 0.418887 0.561736 0.0170957
229 1 0.443735 0.454413 0.22936
228 1 0.443384 0.647407 0.201587
209 1 0.553978 0.319118 0.0133758
212 1 0.538063 0.370335 0.231925
225 1 0.517219 0.527506 0.0784904
227 1 0.659341 0.472399 0.105071
232 1 0.562005 0.57476 0.266733
214 1 0.691527 0.394763 0.325115
230 1 0.691424 0.597348 0.254187
37 1 0.777038 0.503891 0.217906
32 1 0.880458 0.324361 0.00706764
36 1 0.891403 0.48968 0.150631
38 1 0.97235 0.665561 0.225057
18 1 0.96897 0.438738 0.00522062
69 1 0.0170401 0.983191 0.21765
113 1 0.0511538 0.723889 0.0747956
116 1 0.0837441 0.929129 0.0175603
117 1 0.0481699 0.80862 0.306745
120 1 0.114617 0.956797 0.25384
115 1 0.136775 0.782515 0.133972
168 1 0.251061 0.728919 0.30313
164 1 0.246444 0.769949 0.0821899
118 1 0.180919 0.974525 0.0409834
119 1 0.217413 0.911314 0.224059
181 1 0.314075 0.877053 0.189616
180 1 0.302073 0.938205 0.990071
177 1 0.34496 0.737222 0.0508297
166 1 0.347304 0.690485 0.245853
179 1 0.416104 0.83449 0.151503
182 1 0.488187 0.982475 0.264637
241 1 0.460148 0.7339 0.00104665
244 1 0.500564 0.930024 0.0369612
197 1 0.594238 0.98696 0.126609
245 1 0.536051 0.793935 0.163917
243 1 0.612967 0.664505 0.116958
246 1 0.627 0.790011 0.264746
195 1 0.689179 0.991038 0.189125
49 1 0.763826 0.686323 0.113442
242 1 0.68666 0.837185 0.0568647
53 1 0.734614 0.804103 0.270292
52 1 0.826334 0.861993 0.150214
3 1 0.86744 0.988242 0.272062
51 1 0.858132 0.676084 0.140282
50 1 0.939245 0.861643 0.112073
34 1 0.948287 0.656014 0.0187959
15 1 0.869161 0.0216411 0.0500876
7 1 0.952324 0.856426 0.313659
88 1 0.0848125 0.325888 0.456586
74 1 0.117594 0.125721 0.557545
89 1 0.0238788 0.164688 0.516612
91 1 0.155431 0.283393 0.636582
87 1 0.239584 0.143371 0.369451
140 1 0.218466 0.151005 0.567011
90 1 0.184273 0.3229 0.458848
153 1 0.323232 0.216781 0.584778
149 1 0.347777 0.137167 0.401369
151 1 0.436368 0.150611 0.515997
216 1 0.484866 0.309595 0.385666
155 1 0.43745 0.278136 0.673714
204 1 0.496635 0.0666203 0.657251
200 1 0.527316 0.130114 0.425222
217 1 0.557255 0.226546 0.591455
202 1 0.64034 0.107722 0.53101
215 1 0.663771 0.326005 0.54331
219 1 0.695908 0.186154 0.682942
25 1 0.760257 0.176575 0.437263
10 1 0.840983 0.0296278 0.461383
9 1 0.737027 0.00868005 0.608404
28 1 0.812517 0.293708 0.57348
8 1 0.852955 0.235764 0.360118
23 1 0.946013 0.056262 0.390274
27 1 0.89937 0.163112 0.550732
11 1 0.978562 0.00636217 0.584566
93 1 0.975293 0.301192 0.636159
92 1 0.0642968 0.371109 0.661928
104 1 0.0772558 0.620739 0.41685
110 1 0.0662831 0.624229 0.640911
101 1 0.985664 0.319663 0.421716
105 1 0.0026317 0.487041 0.528418
107 1 0.123086 0.471579 0.543608
152 1 0.287634 0.373691 0.436813
169 1 0.242365 0.560704 0.431487
172 1 0.222078 0.530665 0.619821
94 1 0.253234 0.327909 0.642162
156 1 0.324127 0.519334 0.564167
167 1 0.334961 0.516295 0.330019
154 1 0.390869 0.356496 0.490425
171 1 0.41951 0.554689 0.583962
170 1 0.404744 0.625508 0.394524
220 1 0.492648 0.394994 0.557794
233 1 0.494349 0.55397 0.402351
236 1 0.516448 0.631567 0.577
231 1 0.580842 0.3549 0.430729
235 1 0.586318 0.490608 0.590075
234 1 0.631768 0.566144 0.41599
218 1 0.732451 0.46418 0.50114
41 1 0.76189 0.660938 0.421856
24 1 0.803909 0.408161 0.394883
43 1 0.839273 0.532136 0.518238
40 1 0.842911 0.601696 0.331173
26 1 0.893589 0.365817 0.495874
39 1 0.942366 0.502171 0.3635
108 1 0.966942 0.645773 0.623578
106 1 0.157346 0.747174 0.321038
73 1 0.0393796 0.99376 0.409165
122 1 0.109486 0.82327 0.478445
123 1 0.163646 0.657034 0.512996
121 1 0.00470852 0.822819 0.508551
124 1 0.078387 0.965859 0.622255
71 1 0.174265 0.0111413 0.424609
136 1 0.282702 0.954789 0.38884
137 1 0.288279 0.00375902 0.588554
185 1 0.211675 0.821542 0.463766
187 1 0.307733 0.707948 0.490295
75 1 0.189322 0.951707 0.636102
183 1 0.470525 0.786243 0.346438
138 1 0.38478 0.966476 0.535149
184 1 0.368646 0.820597 0.38846
186 1 0.442835 0.75221 0.54061
190 1 0.359218 0.775939 0.675371
201 1 0.490083 0.936296 0.50042
249 1 0.558083 0.72434 0.42623
252 1 0.534324 0.845268 0.66409
248 1 0.573479 0.925538 0.370305
250 1 0.618307 0.886011 0.548604
251 1 0.627211 0.68256 0.602858
5 1 0.773765 0.983084 0.314716
247 1 0.677952 0.762777 0.437283
199 1 0.683387 0.994251 0.375765
57 1 0.70641 0.79897 0.644212
56 1 0.762103 0.866057 0.471589
60 1 0.891652 0.996626 0.666105
42 1 0.837745 0.738674 0.589228
54 1 0.845409 0.792054 0.36435
55 1 0.938743 0.680179 0.437256
58 1 0.903416 0.868289 0.521582
67 1 0.142976 0.134414 0.939478
76 1 0.042548 0.127131 0.709031
95 1 0.0920782 0.266551 0.814257
78 1 0.158126 0.115982 0.748428
80 1 0.0449618 0.0943106 0.911423
31 1 0.990327 0.295619 0.861699
132 1 0.249138 0.107203 0.965637
66 1 0.203862 0.267871 0.844672
144 1 0.269055 0.111306 0.768069
145 1 0.29312 0.293474 0.923866
130 1 0.347782 0.0848171 0.900842
142 1 0.380853 0.10007 0.694742
159 1 0.38775 0.25363 0.844122
143 1 0.456984 0.059417 0.872934
203 1 0.652205 0.0194849 0.736325
208 1 0.514784 0.23307 0.809722
193 1 0.549349 0.122623 0.972428
221 1 0.610222 0.339949 0.729751
206 1 0.633109 0.183854 0.856638
12 1 0.816371 0.150418 0.727609
1 1 0.742924 0.0399092 0.0253785
29 1 0.741417 0.235034 0.853596
16 1 0.824058 0.169776 0.952441
2 1 0.929494 0.150332 0.94759
14 1 0.943028 0.14943 0.749776
30 1 0.881157 0.30499 0.787082
62 1 0.84769 0.00805121 0.842407
96 1 0.0561839 0.49396 0.843355
111 1 0.138005 0.492355 0.728765
98 1 0.150373 0.59656 0.994978
82 1 0.140713 0.422422 0.925606
160 1 0.2418 0.455177 0.827892
176 1 0.271922 0.630896 0.9403
189 1 0.199592 0.639128 0.80129
157 1 0.335949 0.400515 0.737727
173 1 0.308098 0.598071 0.727406
158 1 0.430448 0.474694 0.775885
175 1 0.336314 0.486369 0.912261
240 1 0.495875 0.592394 0.895667
224 1 0.462032 0.385438 0.949744
237 1 0.532053 0.450874 0.780131
239 1 0.597323 0.523367 0.945022
238 1 0.657501 0.529944 0.762114
223 1 0.668356 0.355117 0.908726
33 1 0.786383 0.481283 0.00485626
210 1 0.706159 0.626963 0.944534
44 1 0.744589 0.604467 0.650094
222 1 0.737378 0.399886 0.743379
45 1 0.827832 0.471098 0.702696
48 1 0.788837 0.652228 0.81767
112 1 0.986651 0.65449 0.820237
109 1 0.960286 0.460406 0.780415
46 1 0.886924 0.653538 0.767058
47 1 0.882928 0.522735 0.90794
127 1 0.0858627 0.692961 0.847422
79 1 0.105361 0.941054 0.817732
125 1 0.0319178 0.805697 0.720188
126 1 0.144331 0.777714 0.688495
128 1 0.0051484 0.818853 0.927419
114 1 0.163384 0.800023 0.919614
129 1 0.207006 0.949377 0.841397
188 1 0.247674 0.790274 0.636342
192 1 0.271009 0.7892 0.828672
141 1 0.325098 0.945592 0.764075
174 1 0.454383 0.716347 0.74922
139 1 0.430853 0.914552 0.706307
178 1 0.390451 0.863551 0.916541
191 1 0.372864 0.677878 0.853995
256 1 0.509887 0.835367 0.850573
205 1 0.556954 0.00976078 0.813558
253 1 0.563717 0.65484 0.761239
254 1 0.612579 0.831509 0.774866
255 1 0.583213 0.786752 0.973705
207 1 0.64624 0.000591623 0.941552
13 1 0.750116 0.980056 0.826122
226 1 0.702764 0.802751 0.859784
61 1 0.827273 0.827529 0.761285
64 1 0.793627 0.821104 0.966248
59 1 0.934173 0.821688 0.703008
77 1 0.991216 0.960768 0.793265
63 1 0.902986 0.860653 0.930561
ITEM: TIMESTEP
20000
ITEM: NUMBER OF ATOMS
256
ITEM: BOX BOUNDS pp pp pp
0.0000000000000000e+00 1.0079368399158984e+01
0.0000000000000000e+00 5.0396841995794919e+00
0.0000000000000000e+00 5.0396841995794919e+00
ITEM: ATOMS id type xs ys zs
68 1 0.0781666 0.202383 0.0860957
69 1 0.0185046 0.0523959 0.206966
85 1 0.00154399 0.243118 0.248174
83 1 0.176016 0.298194 0.0622494
70 1 0.169884 0.185936 0.240058
148 1 0.258017 0.331432 0.219138
119 1 0.257651 0.046358 0.227207
147 1 0.354214 0.175761 0.0777564
133 1 0.358649 0.026413 0.224944
134 1 0.437064 0.199399 0.232674
182 1 0.467256 0.00854431 0.208263
131 1 0.414983 0.0314019 0.0304846
196 1 0.487315 0.18316 0.0585239
149 1 0.329404 0.197386 0.303201
213 1 0.555488 0.195969 0.215611
211 1 0.64827 0.246899 0.173346
193 1 0.593674 0.143973 0.0425436
195 1 0.669412 0.042551 0.198678
209 1 0.600447 0.340265 0.0107059
194 1 0.703786 0.0631334 0.0123976
21 1 0.713282 0.224276 0.325129
4 1 0.755286 0.198259 0.131323
5 1 0.758002 0.00792513 0.301645
8 1 0.826227 0.159209 0.295136
19 1 0.971701 0.171794 0.040197
6 1 0.917284 0.143986 0.222753
32 1 0.883506 0.285018 0.011127
15 1 0.833313 0.106573 0.0812852
81 1 0.0292639 0.344783 0.00497074
84 1 0.0897397 0.335419 0.250344
100 1 0.0825025 0.639865 0.0907564
99 1 0.124547 0.46144 0.105394
35 1 0.0173177 0.475692 0.158885
103 1 0.0930757 0.525737 0.284261
86 1 0.17772 0.404913 0.313715
102 1 0.166876 0.632534 0.194019
165 1 0.229246 0.480971 0.122005
168 1 0.253342 0.601467 0.271897
163 1 0.334126 0.516058 0.0889119
150 1 0.381881 0.356369 0.169455
162 1 0.429421 0.50905 0.0376739
229 1 0.451424 0.46225 0.277817
166 1 0.431439 0.652078 0.158344
167 1 0.357343 0.574337 0.346841
224 1 0.512609 0.389669 0.0500103
228 1 0.531894 0.6534 0.270191
212 1 0.549967 0.425185 0.236743
225 1 0.528026 0.587514 0.0857534
227 1 0.628361 0.53294 0.14013
232 1 0.627879 0.61745 0.320259
214 1 0.653621 0.425903 0.310902
17 1 0.723397 0.409619 0.183363
49 1 0.804596 0.55394 0.0415857
20 1 0.827194 0.347543 0.205692
230 1 0.728929 0.623182 0.226845
40 1 0.827335 0.54554 0.266122
22 1 0.937119 0.360679 0.172605
36 1 0.903258 0.520171 0.102779
34 1 0.9898 0.635931 0.0338538
39 1 0.94539 0.516362 0.300286
113 1 0.036471 0.827461 0.141798
120 1 0.113694 0.962177 0.208208
115 1 0.129312 0.846838 0.0553033
117 1 0.107827 0.746038 0.301251
38 1 0.0168201 0.667163 0.266106
116 1 0.0580455 0.999446 0.0277854
106 1 0.19561 0.836371 0.21045
164 1 0.256805 0.763214 0.0862605
181 1 0.304956 0.827032 0.273008
180 1 0.314323 0.957634 0.0592419
118 1 0.216849 0.944599 0.0582052
177 1 0.344492 0.722722 0.0887639
179 1 0.406502 0.863731 0.146826
241 1 0.458612 0.73465 0.991652
244 1 0.503951 0.977108 0.012898
243 1 0.615568 0.757881 0.182839
197 1 0.571553 0.994434 0.174358
245 1 0.509941 0.814159 0.161771
207 1 0.645327 0.889713 0.041285
246 1 0.595993 0.899604 0.323589
1 1 0.779309 0.923101 0.0905759
242 1 0.703721 0.660766 0.047296
53 1 0.7026 0.839181 0.286172
52 1 0.82105 0.741384 0.164532
3 1 0.861063 0.958676 0.200128
50 1 0.925045 0.763522 0.126676
7 1 0.947112 0.909879 0.282482
65 1 0.945384 0.974624 0.0768202
64 1 0.868062 0.883555 0.990718
72 1 0.0782845 0.143034 0.337432
74 1 0.0442533 0.202665 0.520842
90 1 0.147048 0.244341 0.49228
124 1 0.105568 0.0494881 0.495038
87 1 0.229585 0.19629 0.409483
140 1 0.191041 0.107968 0.638672
94 1 0.260113 0.278361 0.614526
136 1 0.308282 0.00570254 0.402681
153 1 0.332491 0.183601 0.506026
151 1 0.431772 0.134605 0.444809
142 1 0.406914 0.0893061 0.663587
154 1 0.398212 0.336603 0.370157
157 1 0.383087 0.286228 0.626795
155 1 0.486111 0.234865 0.716481
216 1 0.506614 0.299548 0.372113
198 1 0.616027 0.155449 0.384376
200 1 0.546074 0.140787 0.537294
202 1 0.673755 0.180309 0.57729
248 1 0.519283 0.0430198 0.379228
231 1 0.60195 0.355936 0.474429
25 1 0.762917 0.125143 0.463968
9 1 0.732666 0.00916591 0.642392
28 1 0.761692 0.259357 0.621333
24 1 0.705054 0.343083 0.464988
26 1 0.81362 0.314993 0.448135
199 1 0.678342 0.988136 0.445649
89 1 0.953997 0.290356 0.549171
23 1 0.963366 0.120708 0.397751
27 1 0.86432 0.152774 0.54127
101 1 0.899559 0.273569 0.359649
11 1 0.000808832 0.0321935 0.586323
10 1 0.866093 0.993213 0.401524
92 1 0.036478 0.394677 0.591256
104 1 0.0217629 0.55924 0.47233
107 1 0.111434 0.446445 0.487281
88 1 0.0136519 0.378248 0.389053
152 1 0.265964 0.37426 0.422473
169 1 0.180474 0.59233 0.43626
172 1 0.218095 0.488542 0.609907
156 1 0.367213 0.4875 0.533983
187 1 0.284333 0.59535 0.477153
170 1 0.447205 0.571631 0.445911
171 1 0.414423 0.580359 0.676268
220 1 0.473159 0.41325 0.581333
236 1 0.517079 0.602352 0.62132
233 1 0.547694 0.530907 0.438371
235 1 0.587311 0.470178 0.678382
251 1 0.617373 0.704409 0.638907
37 1 0.756772 0.508837 0.397449
234 1 0.666978 0.542008 0.534748
215 1 0.681049 0.389622 0.651826
218 1 0.771912 0.440035 0.601805
93 1 0.861347 0.335888 0.64324
105 1 0.927986 0.479157 0.49963
43 1 0.844413 0.600425 0.446542
108 1 0.942967 0.657564 0.608771
126 1 0.133439 0.660981 0.604928
73 1 0.0370665 0.917333 0.367696
122 1 0.119125 0.83776 0.474788
121 1 0.0342869 0.736166 0.555868
75 1 0.166094 0.886402 0.711268
71 1 0.173875 0.985121 0.383844
137 1 0.247088 0.936257 0.534367
123 1 0.221869 0.780786 0.39626
185 1 0.326094 0.778209 0.455938
188 1 0.232177 0.73745 0.597959
135 1 0.409616 0.949465 0.392597
201 1 0.474067 0.961937 0.558814
138 1 0.353326 0.947837 0.576748
184 1 0.402264 0.741739 0.349448
186 1 0.434374 0.761961 0.533792
190 1 0.343168 0.726206 0.625939
183 1 0.495295 0.831754 0.35602
249 1 0.566121 0.752239 0.460787
250 1 0.586447 0.958608 0.518232
252 1 0.520258 0.812488 0.640142
41 1 0.750374 0.692791 0.435292
247 1 0.663431 0.780452 0.499276
44 1 0.741341 0.629544 0.64275
56 1 0.77007 0.914648 0.463491
57 1 0.701337 0.815903 0.686901
54 1 0.854525 0.805856 0.348757
60 1 0.870038 0.954723 0.596413
42 1 0.825484 0.756389 0.560047
55 1 0.93686 0.697146 0.392133
58 1 0.962456 0.865675 0.497076
91 1 0.114922 0.277028 0.672601
67 1 0.149156 0.109944 0.976365
76 1 0.0120247 0.209593 0.730928
78 1 0.0904286 0.0844445 0.698591
80 1 0.0451019 0.163952 0.902607
95 1 0.106719 0.31348 0.893076
132 1 0.25284 0.144609 0.0187714
66 1 0.186331 0.242611 0.802568
144 1 0.291441 0.077277 0.678023
145 1 0.290054 0.226163 0.81177
129 1 0.210758 0.0238886 0.824171
146 1 0.417523 0.313409 -0.00153616
130 1 0.3396 0.00772682 0.850805
159 1 0.391172 0.201892 0.848217
143 1 0.457714 0.0233055 0.849749
217 1 0.588149 0.261872 0.690777
208 1 0.532746 0.190678 0.89173
206 1 0.636198 0.162164 0.839697
203 1 0.633105 0.0393724 0.681214
204 1 0.531537 0.0404982 0.718495
12 1 0.811375 0.0871841 0.716021
219 1 0.727671 0.205441 0.801609
29 1 0.696109 0.264696 0.999438
16 1 0.785553 0.987266 0.909711
30 1 0.820306 0.242064 0.847914
31 1 0.939179 0.311834 0.847653
2 1 0.905341 0.0852113 0.93097
14 1 0.911338 0.162908 0.718445
97 1 0.0664647 0.540035 0.910572
110 1 0.0511568 0.57833 0.690385
96 1 0.026732 0.395755 0.790327
111 1 0.132057 0.469765 0.740561
98 1 0.172816 0.660179 0.984453
161 1 0.275336 0.341674 0.0175286
82 1 0.178721 0.451296 0.941073
160 1 0.254312 0.425896 0.802784
176 1 0.275683 0.583804 0.946101
189 1 0.202965 0.638046 0.756872
173 1 0.315359 0.557994 0.716624
175 1 0.344862 0.402733 0.893969
158 1 0.431342 0.414149 0.781559
240 1 0.499268 0.556504 0.889027
191 1 0.37127 0.649371 0.872848
221 1 0.646191 0.358774 0.836908
237 1 0.538652 0.37713 0.819655
239 1 0.603415 0.546107 0.927555
253 1 0.566376 0.679714 0.788932
33 1 0.785149 0.366895 0.988648
238 1 0.671147 0.566308 0.784694
223 1 0.695538 0.466552 0.977308
222 1 0.755038 0.43038 0.79717
48 1 0.781962 0.620623 0.822399
18 1 0.960697 0.481827 0.931143
51 1 0.875315 0.658603 0.957577
45 1 0.860444 0.546011 0.655417
109 1 0.946609 0.487383 0.70545
47 1 0.855845 0.461446 0.872825
127 1 0.106894 0.721203 0.783205
79 1 0.109948 0.961047 0.850945
125 1 0.0651204 0.896026 0.657738
128 1 0.0585182 0.794483 0.922577
114 1 0.211644 0.841068 0.882623
192 1 0.308473 0.813196 0.900598
141 1 0.273375 0.864728 0.729147
174 1 0.462126 0.716352 0.789457
139 1 0.431723 0.889466 0.718641
178 1 0.400022 0.865789 0.917871
205 1 0.583174 0.00869822 0.904623
256 1 0.521228 0.855137 0.873545
254 1 0.604717 0.866811 0.752258
255 1 0.573021 0.743443 0.995834
210 1 0.65527 0.753016 0.881292
13 1 0.685954 0.942061 0.845925
226 1 0.772328 0.787452 0.922965
61 1 0.794028 0.860066 0.730171
77 1 0.991938 0.985032 0.82243
112 1 0.986115 0.675177 0.798146
59 1 0.947828 0.847876 0.691782
46 1 0.86703 0.724504 0.771707
62 1 0.871988 0.960312 0.801527
63 1 0.961502 0.809059 0.929758
ITEM: TIMESTEP
30000
ITEM: NUMBER OF ATOMS
256
ITEM: BOX BOUNDS pp pp pp
0.0000000000000000e+00 1.0079368399158984e+01
0.0000000000000000e+00 5.0396841995794919e+00
0.0000000000000000e+00 5.0396841995794919e+00
ITEM: ATOMS id type xs ys zs
68 1 0.0810771 0.299731 0.14687
120 1 0.133299 0.0813697 0.208762
116 1 0.0454294 0.0984828 0.038778
83 1 0.187205 0.340594 0.166639
72 1 0.0372763 0.179571 0.312606
148 1 0.287048 0.298313 0.154187
119 1 0.237382 0.122933 0.269
147 1 0.318694 0.113959 0.0732914
149 1 0.325047 0.179545 0.323959
118 1 0.232423 0.00831681 0.0744454
133 1 0.359533 0.0217908 0.243934
134 1 0.445806 0.154364 0.279619
196 1 0.445888 0.0721505 0.0758904
150 1 0.380169 0.260004 0.15962
224 1 0.477433 0.299819 0.0748522
213 1 0.539935 0.153966 0.170377
211 1 0.639186 0.228118 0.194624
193 1 0.605835 0.0991498 0.0218958
209 1 0.568705 0.288005 0.0434739
198 1 0.597868 0.0704156 0.321481
4 1 0.712051 0.111884 0.099366
8 1 0.814634 0.144476 0.224788
21 1 0.726364 0.156091 0.303192
15 1 0.831678 0.0343348 0.0502029
20 1 0.832852 0.339257 0.193765
69 1 0.988788 0.0366679 0.200863
19 1 0.972689 0.236264 0.0341676
6 1 0.905981 0.18726 0.159259
65 1 0.936734 0.0144474 0.0206433
32 1 0.879464 0.350449 0.00189234
84 1 0.0613471 0.456677 0.280773
99 1 0.118252 0.491041 0.111097
81 1 0.0211654 0.41741 0.0429802
35 1 0.998085 0.574065 0.208681
165 1 0.250891 0.488952 0.157308
168 1 0.274266 0.663191 0.214688
102 1 0.180566 0.674508 0.182101
176 1 0.278451 0.598443 0.0148281
167 1 0.334436 0.37315 0.374355
163 1 0.363784 0.445521 0.181955
229 1 0.443755 0.401327 0.311704
166 1 0.453968 0.594633 0.191653
162 1 0.446713 0.498237 0.989755
228 1 0.550366 0.564739 0.253337
212 1 0.535642 0.368168 0.225452
225 1 0.553407 0.518733 0.0629134
227 1 0.643084 0.426535 0.11573
214 1 0.636641 0.406188 0.315142
243 1 0.637756 0.622919 0.166113
17 1 0.727098 0.326558 0.220614
49 1 0.811212 0.509062 0.0406523
230 1 0.73136 0.531232 0.189015
40 1 0.826234 0.556456 0.235588
85 1 0.974996 0.342032 0.208823
22 1 0.908878 0.500797 0.122163
39 1 0.910163 0.487901 0.318295
34 1 0.984722 0.654298 0.0246428
100 1 0.0681817 0.692361 0.139191
113 1 0.0719254 0.929146 0.155238
115 1 0.162086 0.878945 0.113714
38 1 0.019612 0.774659 0.306376
117 1 0.122115 0.914835 0.33717
106 1 0.224508 0.923127 0.263972
164 1 0.241695 0.78388 0.034469
181 1 0.317492 0.850445 0.186922
182 1 0.466499 0.964606 0.240331
177 1 0.369491 0.660728 0.0722777
131 1 0.41388 0.84347 0.103952
179 1 0.367426 0.614448 0.296678
135 1 0.3933 0.846069 0.325225
244 1 0.508873 0.93454 0.994274
197 1 0.559931 0.940624 0.170883
245 1 0.500105 0.775868 0.187793
207 1 0.655197 0.935559 0.0313419
246 1 0.61939 0.788791 0.299411
255 1 0.593231 0.770436 0.0566987
195 1 0.665246 0.965393 0.216868
1 1 0.750155 0.886686 0.989609
53 1 0.71118 0.798827 0.177736
52 1 0.794523 0.70305 0.114141
5 1 0.779699 0.942488 0.198417
3 1 0.885284 0.983405 0.206878
36 1 0.905663 0.673424 0.198291
50 1 0.97188 0.839143 0.148016
64 1 0.86857 0.850821 0.0706682
54 1 0.836383 0.796975 0.305404
70 1 0.131096 0.309145 0.365381
74 1 0.0715979 0.225051 0.534315
71 1 0.126082 0.12078 0.389596
140 1 0.140989 0.166142 0.651483
87 1 0.205661 0.151319 0.501783
94 1 0.182128 0.337781 0.550757
153 1 0.325984 0.154705 0.532022
151 1 0.411945 0.0541031 0.442196
142 1 0.470652 0.149797 0.562917
159 1 0.376147 0.286621 0.670079
154 1 0.405111 0.263902 0.463923
216 1 0.520457 0.240211 0.381449
200 1 0.570825 0.111165 0.515713
231 1 0.592326 0.324416 0.482079
202 1 0.670996 0.066158 0.465038
217 1 0.549226 0.214505 0.690759
215 1 0.655573 0.228304 0.628338
203 1 0.625814 0.0455074 0.673796
25 1 0.762035 0.083529 0.483018
28 1 0.764003 0.294576 0.596244
24 1 0.694891 0.286532 0.436431
12 1 0.829274 0.0334104 0.612532
101 1 0.906887 0.286083 0.369994
89 1 0.963817 0.185276 0.515251
23 1 0.927257 0.091815 0.355068
27 1 0.846282 0.174582 0.475403
103 1 0.0985966 0.647531 0.324834
90 1 0.0971066 0.465152 0.515885
107 1 0.0657248 0.639007 0.585458
104 1 0.0120641 0.602613 0.431421
92 1 0.0109251 0.451032 0.612667
152 1 0.23928 0.305813 0.353777
86 1 0.168143 0.506539 0.304412
172 1 0.188405 0.541202 0.513616
187 1 0.270824 0.511361 0.402358
157 1 0.282006 0.361015 0.584817
173 1 0.286662 0.56328 0.601614
156 1 0.373066 0.464606 0.533113
170 1 0.456743 0.55215 0.462474
171 1 0.426977 0.541078 0.675963
220 1 0.485806 0.353303 0.543956
184 1 0.374435 0.671889 0.498352
236 1 0.524884 0.596184 0.608884
232 1 0.653572 0.596923 0.398352
233 1 0.553486 0.519293 0.44871
251 1 0.631458 0.595697 0.606259
234 1 0.692495 0.44206 0.603753
37 1 0.739431 0.483121 0.413696
44 1 0.731136 0.636655 0.589337
26 1 0.817209 0.377006 0.401363
218 1 0.80156 0.488834 0.582651
93 1 0.874837 0.320608 0.61594
43 1 0.830013 0.626133 0.453612
88 1 0.006432 0.373744 0.425396
105 1 0.919443 0.499945 0.528312
108 1 0.974773 0.643454 0.641444
73 1 0.0118924 0.00204722 0.389173
124 1 0.0979513 0.983517 0.541988
121 1 0.100663 0.785383 0.478971
126 1 0.160554 0.743914 0.664913
136 1 0.303036 0.963982 0.385575
169 1 0.207426 0.712269 0.413458
122 1 0.190527 0.911334 0.486799
137 1 0.263916 0.992939 0.599191
123 1 0.313391 0.774328 0.400964
185 1 0.36818 0.884846 0.556478
201 1 0.465292 0.945954 0.560074
186 1 0.446551 0.741167 0.590484
183 1 0.474011 0.759065 0.392608
248 1 0.534679 0.921484 0.369312
250 1 0.616218 0.898746 0.49039
249 1 0.573778 0.710152 0.474682
252 1 0.543792 0.839148 0.619129
41 1 0.747029 0.679594 0.319239
247 1 0.685092 0.770326 0.470415
9 1 0.717719 0.941967 0.577492
199 1 0.726988 0.90257 0.372879
56 1 0.785203 0.800508 0.504962
10 1 0.833039 0.977702 0.387809
45 1 0.818801 0.683046 0.687999
58 1 0.00530622 0.803164 0.514326
60 1 0.920704 0.970185 0.548031
7 1 0.929132 0.893161 0.368871
42 1 0.894071 0.779889 0.555456
55 1 0.926934 0.677196 0.386865
11 1 0.998948 0.0546352 0.647101
67 1 0.13658 0.173414 0.019636
76 1 0.00355754 0.248554 0.693392
78 1 0.0923726 0.0918532 0.798636
80 1 0.0469761 0.285599 0.900217
66 1 0.173337 0.226166 0.848649
144 1 0.250375 0.183852 0.68138
132 1 0.249836 0.219477 0.990728
145 1 0.290062 0.32866 0.784863
129 1 0.220932 0.0373589 0.869393
130 1 0.326145 0.137066 0.846598
138 1 0.388671 0.0808589 0.652059
155 1 0.456283 0.20158 0.800755
146 1 0.393129 0.217824 0.973161
143 1 0.408803 0.0119632 0.89553
208 1 0.518638 0.157648 0.942683
206 1 0.61374 0.221454 0.830185
237 1 0.519035 0.352232 0.826701
204 1 0.513617 0.0194311 0.738714
29 1 0.672647 0.280188 0.995199
194 1 0.695064 0.101425 0.895473
33 1 0.778265 0.237189 0.987226
219 1 0.729726 0.100924 0.687781
30 1 0.81311 0.192657 0.757433
16 1 0.789158 0.0177704 0.86061
222 1 0.704078 0.32101 0.773251
31 1 0.947285 0.31609 0.861655
2 1 0.878976 0.151447 0.92548
14 1 0.907707 0.164605 0.709568
77 1 0.977061 0.0907474 0.852816
91 1 0.0975681 0.334008 0.695067
95 1 0.121039 0.409559 0.91776
97 1 0.0730447 0.607578 0.946336
96 1 0.0254015 0.463213 0.824082
111 1 0.105044 0.567056 0.77046
98 1 0.185633 0.606914 0.983221
161 1 0.338723 0.41145 0.996785
82 1 0.225842 0.422645 0.934919
160 1 0.199747 0.41292 0.740967