ITEM: TIMESTEP
0
ITEM: NUMBER OF ATOMS
864
ITEM: BOX BOUNDS pp pp pp
0.0000000000000000e+00 1.5119052598738476e+01
0.0000000000000000e+00 7.5595262993692378e+00
0.0000000000000000e+00 7.5595262993692378e+00
ITEM: ATOMS id type xs ys zs
1 1 0 0 0
2 1 0.0416667 0.0833333 0
3 1 0.0416667 0 0.0833333
4 1 0 0.0833333 0.0833333
5 1 0 0 0.166667
6 1 0.0416667 0.0833333 0.166667
7 1 0.0416667 0 0.25
8 1 0 0.0833333 0.25
25 1 0 0.166667 0
26 1 0.0416667 0.25 0
27 1 0.0416667 0.166667 0.0833333
28 1 0 0.25 0.0833333
29 1 0 0.166667 0.166667
30 1 0.0416667 0.25 0.166667
31 1 0.0416667 0.166667 0.25
32 1 0 0.25 0.25
145 1 0.0833333 0 0
148 1 0.0833333 0.0833333 0.0833333
149 1 0.0833333 0 0.166667
152 1 0.0833333 0.0833333 0.25
169 1 0.0833333 0.166667 0
172 1 0.0833333 0.25 0.0833333
173 1 0.0833333 0.166667 0.166667
176 1 0.0833333 0.25 0.25
146 1 0.125 0.0833333 0
147 1 0.125 0 0.0833333
150 1 0.125 0.0833333 0.166667
151 1 0.125 0 0.25
170 1 0.125 0.25 0
171 1 0.125 0.166667 0.0833333
174 1 0.125 0.25 0.166667
175 1 0.125 0.166667 0.25
289 1 0.166667 0 0
290 1 0.208333 0.0833333 0
291 1 0.208333 0 0.0833333
292 1 0.166667 0.0833333 0.0833333
293 1 0.166667 0 0.166667
294 1 0.208333 0.0833333 0.166667
295 1 0.208333 0 0.25
296 1 0.166667 0.0833333 0.25
313 1 0.166667 0.166667 0
314 1 0.208333 0.25 0
315 1 0.208333 0.166667 0.0833333
316 1 0.166667 0.25 0.0833333
317 1 0.166667 0.166667 0.166667
318 1 0.208333 0.25 0.166667
319 1 0.208333 0.166667 0.25
320 1 0.166667 0.25 0.25
433 1 0.25 0 0
434 1 0.291667 0.0833333 0
435 1 0.291667 0 0.0833333
436 1 0.25 0.0833333 0.0833333
437 1 0.25 0 0.166667
438 1 0.291667 0.0833333 0.166667
439 1 0.291667 0 0.25
440 1 0.25 0.0833333 0.25
457 1 0.25 0.166667 0
458 1 0.291667 0.25 0
459 1 0.291667 0.166667 0.0833333
460 1 0.25 0.25 0.0833333
461 1 0.25 0.166667 0.166667
462 1 0.291667 0.25 0.166667
463 1 0.291667 0.166667 0.25
464 1 0.25 0.25 0.25
577 1 0.333333 0 0
578 1 0.375 0.0833333 0
579 1 0.375 0 0.0833333
580 1 0.333333 0.0833333 0.0833333
581 1 0.333333 0 0.166667
582 1 0.375 0.0833333 0.166667
583 1 0.375 0 0.25
584 1 0.333333 0.0833333 0.25
601 1 0.333333 0.166667 0
602 1 0.375 0.25 0
603 1 0.375 0.166667 0.0833333
604 1 0.333333 0.25 0.0833333
605 1 0.333333 0.166667 0.166667
606 1 0.375 0.25 0.166667
607 1 0.375 0.166667 0.25
608 1 0.333333 0.25 0.25
721 1 0.416667 0 0
724 1 0.416667 0.0833333 0.0833333
725 1 0.416667 0 0.166667
728 1 0.416667 0.0833333 0.25
745 1 0.416667 0.166667 0
748 1 0.416667 0.25 0.0833333
749 1 0.416667 0.166667 0.166667
752 1 0.416667 0.25 0.25
722 1 0.458333 0.0833333 0
723 1 0.458333 0 0.0833333
726 1 0.458333 0.0833333 0.166667
727 1 0.458333 0 0.25
746 1 0.458333 0.25 0
747 1 0.458333 0.166667 0.0833333
750 1 0.458333 0.25 0.166667
751 1 0.458333 0.166667 0.25
49 1 0 0.333333 0
50 1 0.0416667 0.416667 0
51 1 0.0416667 0.333333 0.0833333
52 1 0 0.416667 0.0833333
53 1 0 0.333333 0.166667
54 1 0.0416667 0.416667 0.166667
55 1 0.0416667 0.333333 0.25
56 1 0 0.416667 0.25
73 1 0 0.5 0
75 1 0.0416667 0.5 0.0833333
77 1 0 0.5 0.166667
79 1 0.0416667 0.5 0.25
193 1 0.0833333 0.333333 0
196 1 0.0833333 0.416667 0.0833333
197 1 0.0833333 0.333333 0.166667
200 1 0.0833333 0.416667 0.25
217 1 0.0833333 0.5 0
221 1 0.0833333 0.5 0.166667
194 1 0.125 0.416667 0
195 1 0.125 0.333333 0.0833333
198 1 0.125 0.416667 0.166667
199 1 0.125 0.333333 0.25
219 1 0.125 0.5 0.0833333
223 1 0.125 0.5 0.25
337 1 0.166667 0.333333 0
338 1 0.208333 0.416667 0
339 1 0.208333 0.333333 0.0833333
340 1 0.166667 0.416667 0.0833333
341 1 0.166667 0.333333 0.166667
342 1 0.208333 0.416667 0.166667
343 1 0.208333 0.333333 0.25
344 1 0.166667 0.416667 0.25
361 1 0.166667 0.5 0
363 1 0.208333 0.5 0.0833333
365 1 0.166667 0.5 0.166667
367 1 0.208333 0.5 0.25
481 1 0.25 0.333333 0
482 1 0.291667 0.416667 0
483 1 0.291667 0.333333 0.0833333
484 1 0.25 0.416667 0.0833333
485 1 0.25 0.333333 0.166667
486 1 0.291667 0.416667 0.166667
487 1 0.291667 0.333333 0.25
488 1 0.25 0.416667 0.25
505 1 0.25 0.5 0
507 1 0.291667 0.5 0.0833333
509 1 0.25 0.5 0.166667
511 1 0.291667 0.5 0.25
625 1 0.333333 0.333333 0
626 1 0.375 0.416667 0
627 1 0.375 0.333333 0.0833333
628 1 0.333333 0.416667 0.0833333
629 1 0.333333 0.333333 0.166667
630 1 0.375 0.416667 0.166667
631 1 0.375 0.333333 0.25
632 1 0.333333 0.416667 0.25
649 1 0.333333 0.5 0
651 1 0.375 0.5 0.0833333
653 1 0.333333 0.5 0.166667
655 1 0.375 0.5 0.25
769 1 0.416667 0.333333 0
772 1 0.416667 0.416667 0.0833333
773 1 0.416667 0.333333 0.166667
776 1 0.416667 0.416667 0.25
793 1 0.416667 0.5 0
797 1 0.416667 0.5 0.166667
770 1 0.458333 0.416667 0
771 1 0.458333 0.333333 0.0833333
774 1 0.458333 0.416667 0.166667
775 1 0.458333 0.333333 0.25
795 1 0.458333 0.5 0.0833333
799 1 0.458333 0.5 0.25
74 1 0.0416667 0.583333 0
76 1 0 0.583333 0.0833333
78 1 0.0416667 0.583333 0.166667
80 1 0 0.583333 0.25
97 1 0 0.666667 0
98 1 0.0416667 0.75 0
99 1 0.0416667 0.666667 0.0833333
100 1 0 0.75 0.0833333
101 1 0 0.666667 0.166667
102 1 0.0416667 0.75 0.166667
103 1 0.0416667 0.666667 0.25
104 1 0 0.75 0.25
220 1 0.0833333 0.583333 0.0833333
224 1 0.0833333 0.583333 0.25
241 1 0.0833333 0.666667 0
244 1 0.0833333 0.75 0.0833333
245 1 0.0833333 0.666667 0.166667
248 1 0.0833333 0.75 0.25
218 1 0.125 0.583333 0
222 1 0.125 0.583333 0.166667
242 1 0.125 0.75 0
243 1 0.125 0.666667 0.0833333
246 1 0.125 0.75 0.166667
247 1 0.125 0.666667 0.25
362 1 0.208333 0.583333 0
364 1 0.166667 0.583333 0.0833333
366 1 0.208333 0.583333 0.166667
368 1 0.166667 0.583333 0.25
385 1 0.166667 0.666667 0
386 1 0.208333 0.75 0
387 1 0.208333 0.666667 0.0833333
388 1 0.166667 0.75 0.0833333
389 1 0.166667 0.666667 0.166667
390 1 0.208333 0.75 0.166667
391 1 0.208333 0.666667 0.25
392 1 0.166667 0.75 0.25
506 1 0.291667 0.583333 0
508 1 0.25 0.583333 0.0833333
510 1 0.291667 0.583333 0.166667
512 1 0.25 0.583333 0.25
529 1 0.25 0.666667 0
530 1 0.291667 0.75 0
531 1 0.291667 0.666667 0.0833333
532 1 0.25 0.75 0.0833333
533 1 0.25 0.666667 0.166667
534 1 0.291667 0.75 0.166667
535 1 0.291667 0.666667 0.25
536 1 0.25 0.75 0.25
650 1 0.375 0.583333 0
652 1 0.333333 0.583333 0.0833333
654 1 0.375 0.583333 0.166667
656 1 0.333333 0.583333 0.25
673 1 0.333333 0.666667 0
674 1 0.375 0.75 0
675 1 0.375 0.666667 0.0833333
676 1 0.333333 0.75 0.0833333
677 1 0.333333 0.666667 0.166667
678 1 0.375 0.75 0.166667
679 1 0.375 0.666667 0.25
680 1 0.333333 0.75 0.25
796 1 0.416667 0.583333 0.0833333
800 1 0.416667 0.583333 0.25
817 1 0.416667 0.666667 0
820 1 0.416667 0.75 0.0833333
821 1 0.416667 0.666667 0.166667
824 1 0.416667 0.75 0.25
794 1 0.458333 0.583333 0
798 1 0.458333 0.583333 0.166667
818 1 0.458333 0.75 0
819 1 0.458333 0.666667 0.0833333
822 1 0.458333 0.75 0.166667
823 1 0.458333 0.666667 0.25
121 1 0 0.833333 0
122 1 0.0416667 0.916667 0
123 1 0.0416667 0.833333 0.0833333
124 1 0 0.916667 0.0833333
125 1 0 0.833333 0.166667
126 1 0.0416667 0.916667 0.166667
127 1 0.0416667 0.833333 0.25
128 1 0 0.916667 0.25
265 1 0.0833333 0.833333 0
268 1 0.0833333 0.916667 0.0833333
269 1 0.0833333 0.833333 0.166667
272 1 0.0833333 0.916667 0.25
266 1 0.125 0.916667 0
267 1 0.125 0.833333 0.0833333
270 1 0.125 0.916667 0.166667
271 1 0.125 0.833333 0.25
409 1 0.166667 0.833333 0
410 1 0.208333 0.916667 0
411 1 0.208333 0.833333 0.0833333
412 1 0.166667 0.916667 0.0833333
413 1 0.166667 0.833333 0.166667
414 1 0.208333 0.916667 0.166667
415 1 0.208333 0.833333 0.25
416 1 0.166667 0.916667 0.25
553 1 0.25 0.833333 0
554 1 0.291667 0.916667 0
555 1 0.291667 0.833333 0.0833333
556 1 0.25 0.916667 0.0833333
557 1 0.25 0.833333 0.166667
558 1 0.291667 0.916667 0.166667
559 1 0.291667 0.833333 0.25
560 1 0.25 0.916667 0.25
697 1 0.333333 0.833333 0
698 1 0.375 0.916667 0
699 1 0.375 0.833333 0.0833333
700 1 0.333333 0.916667 0.0833333
701 1 0.333333 0.833333 0.166667
702 1 0.375 0.916667 0.166667
703 1 0.375 0.833333 0.25
704 1 0.333333 0.916667 0.25
841 1 0.416667 0.833333 0
844 1 0.416667 0.916667 0.0833333
845 1 0.416667 0.833333 0.166667
848 1 0.416667 0.916667 0.25
842 1 0.458333 0.916667 0
843 1 0.458333 0.833333 0.0833333
846 1 0.458333 0.916667 0.166667
847 1 0.458333 0.833333 0.25
9 1 0 0 0.333333
10 1 0.0416667 0.0833333 0.333333
11 1 0.0416667 0 0.416667
12 1 0 0.0833333 0.416667
13 1 0 0 0.5
14 1 0.0416667 0.0833333 0.5
33 1 0 0.166667 0.333333
34 1 0.0416667 0.25 0.333333
35 1 0.0416667 0.166667 0.416667
36 1 0 0.25 0.416667
37 1 0 0.166667 0.5
38 1 0.0416667 0.25 0.5
153 1 0.0833333 0 0.333333
156 1 0.0833333 0.0833333 0.416667
157 1 0.0833333 0 0.5
177 1 0.0833333 0.166667 0.333333
180 1 0.0833333 0.25 0.416667
181 1 0.0833333 0.166667 0.5
154 1 0.125 0.0833333 0.333333
155 1 0.125 0 0.416667
158 1 0.125 0.0833333 0.5
178 1 0.125 0.25 0.333333
179 1 0.125 0.166667 0.416667
182 1 0.125 0.25 0.5
297 1 0.166667 0 0.333333
298 1 0.208333 0.0833333 0.333333
299 1 0.208333 0 0.416667
300 1 0.166667 0.0833333 0.416667
301 1 0.166667 0 0.5
302 1 0.208333 0.0833333 0.5
321 1 0.166667 0.166667 0.333333
322 1 0.208333 0.25 0.333333
323 1 0.208333 0.166667 0.416667
324 1 0.166667 0.25 0.416667
325 1 0.166667 0.166667 0.5
326 1 0.208333 0.25 0.5
441 1 0.25 0 0.333333
442 1 0.291667 0.0833333 0.333333
443 1 0.291667 0 0.416667
444 1 0.25 0.0833333 0.416667
445 1 0.25 0 0.5
446 1 0.291667 0.0833333 0.5
465 1 0.25 0.166667 0.333333
466 1 0.291667 0.25 0.333333
467 1 0.291667 0.166667 0.416667
468 1 0.25 0.25 0.416667
469 1 0.25 0.166667 0.5
470 1 0.291667 0.25 0.5
585 1 0.333333 0 0.333333
586 1 0.375 0.0833333 0.333333
587 1 0.375 0 0.416667
588 1 0.333333 0.0833333 0.416667
589 1 0.333333 0 0.5
590 1 0.375 0.0833333 0.5
609 1 0.333333 0.166667 0.333333
610 1 0.375 0.25 0.333333
611 1 0.375 0.166667 0.416667
612 1 0.333333 0.25 0.416667
613 1 0.333333 0.166667 0.5
614 1 0.375 0.25 0.5
729 1 0.416667 0 0.333333
732 1 0.416667 0.0833333 0.416667
733 1 0.416667 0 0.5
753 1 0.416667 0.166667 0.333333
756 1 0.416667 0.25 0.416667
757 1 0.416667 0.166667 0.5
730 1 0.458333 0.0833333 0.333333
731 1 0.458333 0 0.416667
734 1 0.458333 0.0833333 0.5
754 1 0.458333 0.25 0.333333
755 1 0.458333 0.166667 0.416667
758 1 0.458333 0.25 0.5
57 1 0 0.333333 0.333333
58 1 0.0416667 0.416667 0.333333
59 1 0.0416667 0.333333 0.416667
60 1 0 0.416667 0.416667
61 1 0 0.333333 0.5
62 1 0.0416667 0.416667 0.5
81 1 0 0.5 0.333333
83 1 0.0416667 0.5 0.416667
85 1 0 0.5 0.5
201 1 0.0833333 0.333333 0.333333
204 1 0.0833333 0.416667 0.416667
205 1 0.0833333 0.333333 0.5
225 1 0.0833333 0.5 0.333333
229 1 0.0833333 0.5 0.5
202 1 0.125 0.416667 0.333333
203 1 0.125 0.333333 0.416667
206 1 0.125 0.416667 0.5
227 1 0.125 0.5 0.416667
345 1 0.166667 0.333333 0.333333
346 1 0.208333 0.416667 0.333333
347 1 0.208333 0.333333 0.416667
348 1 0.166667 0.416667 0.416667
349 1 0.166667 0.333333 0.5
350 1 0.208333 0.416667 0.5
369 1 0.166667 0.5 0.333333
371 1 0.208333 0.5 0.416667
373 1 0.166667 0.5 0.5
489 1 0.25 0.333333 0.333333
490 1 0.291667 0.416667 0.333333
491 1 0.291667 0.333333 0.416667
492 1 0.25 0.416667 0.416667
493 1 0.25 0.333333 0.5
494 1 0.291667 0.416667 0.5
513 1 0.25 0.5 0.333333
515 1 0.291667 0.5 0.416667
517 1 0.25 0.5 0.5
633 1 0.333333 0.333333 0.333333
634 1 0.375 0.416667 0.333333
635 1 0.375 0.333333 0.416667
636 1 0.333333 0.416667 0.416667
637 1 0.333333 0.333333 0.5
638 1 0.375 0.416667 0.5
657 1 0.333333 0.5 0.333333
659 1 0.375 0.5 0.416667
661 1 0.333333 0.5 0.5
777 1 0.416667 0.333333 0.333333
780 1 0.416667 0.416667 0.416667
781 1 0.416667 0.333333 0.5
801 1 0.416667 0.5 0.333333
805 1 0.416667 0.5 0.5
778 1 0.458333 0.416667 0.333333
779 1 0.458333 0.333333 0.416667
782 1 0.458333 0.416667 0.5
803 1 0.458333 0.5 0.416667
82 1 0.0416667 0.583333 0.333333
84 1 0 0.583333 0.416667
86 1 0.0416667 0.583333 0.5
105 1 0 0.666667 0.333333
106 1 0.0416667 0.75 0.333333
107 1 0.0416667 0.666667 0.416667
108 1 0 0.75 0.416667
109 1 0 0.666667 0.5
110 1 0.0416667 0.75 0.5
228 1 0.0833333 0.583333 0.416667
249 1 0.0833333 0.666667 0.333333
252 1 0.0833333 0.75 0.416667
253 1 0.0833333 0.666667 0.5
226 1 0.125 0.583333 0.333333
230 1 0.125 0.583333 0.5
250 1 0.125 0.75 0.333333
251 1 0.125 0.666667 0.416667
254 1 0.125 0.75 0.5
370 1 0.208333 0.583333 0.333333
372 1 0.166667 0.583333 0.416667
374 1 0.208333 0.583333 0.5
393 1 0.166667 0.666667 0.333333
394 1 0.208333 0.75 0.333333
395 1 0.208333 0.666667 0.416667
396 1 0.166667 0.75 0.416667
397 1 0.166667 0.666667 0.5
398 1 0.208333 0.75 0.5
514 1 0.291667 0.583333 0.333333
516 1 0.25 0.583333 0.416667
518 1 0.291667 0.583333 0.5
537 1 0.25 0.666667 0.333333
538 1 0.291667 0.75 0.333333
539 1 0.291667 0.666667 0.416667
540 1 0.25 0.75 0.416667
541 1 0.25 0.666667 0.5
542 1 0.291667 0.75 0.5
658 1 0.375 0.583333 0.333333
660 1 0.333333 0.583333 0.416667
662 1 0.375 0.583333 0.5
681 1 0.333333 0.666667 0.333333
682 1 0.375 0.75 0.333333
683 1 0.375 0.666667 0.416667
684 1 0.333333 0.75 0.416667
685 1 0.333333 0.666667 0.5
686 1 0.375 0.75 0.5
804 1 0.416667 0.583333 0.416667
825 1 0.416667 0.666667 0.333333
828 1 0.416667 0.75 0.416667
829 1 0.416667 0.666667 0.5
802 1 0.458333 0.583333 0.333333
806 1 0.458333 0.583333 0.5
826 1 0.458333 0.75 0.333333
827 1 0.458333 0.666667 0.416667
830 1 0.458333 0.75 0.5
129 1 0 0.833333 0.333333
130 1 0.0416667 0.916667 0.333333
131 1 0.0416667 0.833333 0.416667
132 1 0 0.916667 0.416667
133 1 0 0.833333 0.5
134 1 0.0416667 0.916667 0.5
273 1 0.0833333 0.833333 0.333333
276 1 0.0833333 0.916667 0.416667
277 1 0.0833333 0.833333 0.5
274 1 0.125 0.916667 0.333333
275 1 0.125 0.833333 0.416667
278 1 0.125 0.916667 0.5
417 1 0.166667 0.833333 0.333333
418 1 0.208333 0.916667 0.333333
419 1 0.208333 0.833333 0.416667
420 1 0.166667 0.916667 0.416667
421 1 0.166667 0.833333 0.5
422 1 0.208333 0.916667 0.5
561 1 0.25 0.833333 0.333333
562 1 0.291667 0.916667 0.333333
563 1 0.291667 0.833333 0.416667
564 1 0.25 0.916667 0.416667
565 1 0.25 0.833333 0.5
566 1 0.291667 0.916667 0.5
705 1 0.333333 0.833333 0.333333
706 1 0.375 0.916667 0.333333
707 1 0.375 0.833333 0.416667
708 1 0.333333 0.916667 0.416667
709 1 0.333333 0.833333 0.5
710 1 0.375 0.916667 0.5
849 1 0.416667 0.833333 0.333333
852 1 0.416667 0.916667 0.416667
853 1 0.416667 0.833333 0.5
850 1 0.458333 0.916667 0.333333
851 1 0.458333 0.833333 0.416667
854 1 0.458333 0.916667 0.5
15 1 0.0416667 0 0.583333
16 1 0 0.0833333 0.583333
17 1 0 0 0.666667
18 1 0.0416667 0.0833333 0.666667
19 1 0.0416667 0 0.75
20 1 0 0.0833333 0.75
39 1 0.0416667 0.166667 0.583333
40 1 0 0.25 0.583333
41 1 0 0.166667 0.666667
42 1 0.0416667 0.25 0.666667
43 1 0.0416667 0.166667 0.75
44 1 0 0.25 0.75
160 1 0.0833333 0.0833333 0.583333
161 1 0.0833333 0 0.666667
164 1 0.0833333 0.0833333 0.75
184 1 0.0833333 0.25 0.583333
185 1 0.0833333 0.166667 0.666667
188 1 0.0833333 0.25 0.75
159 1 0.125 0 0.583333
162 1 0.125 0.0833333 0.666667
163 1 0.125 0 0.75
183 1 0.125 0.166667 0.583333
186 1 0.125 0.25 0.666667
187 1 0.125 0.166667 0.75
303 1 0.208333 0 0.583333
304 1 0.166667 0.0833333 0.583333
305 1 0.166667 0 0.666667
306 1 0.208333 0.0833333 0.666667
307 1 0.208333 0 0.75
308 1 0.166667 0.0833333 0.75
327 1 0.208333 0.166667 0.583333
328 1 0.166667 0.25 0.583333
329 1 0.166667 0.166667 0.666667
330 1 0.208333 0.25 0.666667
331 1 0.208333 0.166667 0.75
332 1 0.166667 0.25 0.75
447 1 0.291667 0 0.583333
448 1 0.25 0.0833333 0.583333
449 1 0.25 0 0.666667
450 1 0.291667 0.0833333 0.666667
451 1 0.291667 0 0.75
452 1 0.25 0.0833333 0.75
471 1 0.291667 0.166667 0.583333
472 1 0.25 0.25 0.583333
473 1 0.25 0.166667 0.666667
474 1 0.291667 0.25 0.666667
475 1 0.291667 0.166667 0.75
476 1 0.25 0.25 0.75
591 1 0.375 0 0.583333
592 1 0.333333 0.0833333 0.583333
593 1 0.333333 0 0.666667
594 1 0.375 0.0833333 0.666667
595 1 0.375 0 0.75
596 1 0.333333 0.0833333 0.75
615 1 0.375 0.166667 0.583333
616 1 0.333333 0.25 0.583333
617 1 0.333333 0.166667 0.666667
618 1 0.375 0.25 0.666667
619 1 0.375 0.166667 0.75
620 1 0.333333 0.25 0.75
736 1 0.416667 0.0833333 0.583333
737 1 0.416667 0 0.666667
740 1 0.416667 0.0833333 0.75
760 1 0.416667 0.25 0.583333
761 1 0.416667 0.166667 0.666667
764 1 0.416667 0.25 0.75
735 1 0.458333 0 0.583333
738 1 0.458333 0.0833333 0.666667
739 1 0.458333 0 0.75
759 1 0.458333 0.166667 0.583333
762 1 0.458333 0.25 0.666667
763 1 0.458333 0.166667 0.75
63 1 0.0416667 0.333333 0.583333
64 1 0 0.416667 0.583333
65 1 0 0.333333 0.666667
66 1 0.0416667 0.416667 0.666667
67 1 0.0416667 0.333333 0.75
68 1 0 0.416667 0.75
87 1 0.0416667 0.5 0.583333
89 1 0 0.5 0.666667
91 1 0.0416667 0.5 0.75
208 1 0.0833333 0.416667 0.583333
209 1 0.0833333 0.333333 0.666667
212 1 0.0833333 0.416667 0.75
233 1 0.0833333 0.5 0.666667
207 1 0.125 0.333333 0.583333
210 1 0.125 0.416667 0.666667
211 1 0.125 0.333333 0.75
231 1 0.125 0.5 0.583333
235 1 0.125 0.5 0.75
351 1 0.208333 0.333333 0.583333
352 1 0.166667 0.416667 0.583333
353 1 0.166667 0.333333 0.666667
354 1 0.208333 0.416667 0.666667
355 1 0.208333 0.333333 0.75
356 1 0.166667 0.416667 0.75
375 1 0.208333 0.5 0.583333
377 1 0.166667 0.5 0.666667
379 1 0.208333 0.5 0.75
495 1 0.291667 0.333333 0.583333
496 1 0.25 0.416667 0.583333
497 1 0.25 0.333333 0.666667
498 1 0.291667 0.416667 0.666667
499 1 0.291667 0.333333 0.75
500 1 0.25 0.416667 0.75
519 1 0.291667 0.5 0.583333
521 1 0.25 0.5 0.666667
523 1 0.291667 0.5 0.75
639 1 0.375 0.333333 0.583333
640 1 0.333333 0.416667 0.583333
641 1 0.333333 0.333333 0.666667
642 1 0.375 0.416667 0.666667
643 1 0.375 0.333333 0.75
644 1 0.333333 0.416667 0.75
663 1 0.375 0.5 0.583333
665 1 0.333333 0.5 0.666667
667 1 0.375 0.5 0.75
784 1 0.416667 0.416667 0.583333
785 1 0.416667 0.333333 0.666667
788 1 0.416667 0.416667 0.75
809 1 0.416667 0.5 0.666667
783 1 0.458333 0.333333 0.583333
786 1 0.458333 0.416667 0.666667
787 1 0.458333 0.333333 0.75
807 1 0.458333 0.5 0.583333
811 1 0.458333 0.5 0.75
88 1 0 0.583333 0.583333
90 1 0.0416667 0.583333 0.666667
92 1 0 0.583333 0.75
111 1 0.0416667 0.666667 0.583333
112 1 0 0.75 0.583333
113 1 0 0.666667 0.666667
114 1 0.0416667 0.75 0.666667
115 1 0.0416667 0.666667 0.75
116 1 0 0.75 0.75
232 1 0.0833333 0.583333 0.583333
236 1 0.0833333 0.583333 0.75
256 1 0.0833333 0.75 0.583333
257 1 0.0833333 0.666667 0.666667
260 1 0.0833333 0.75 0.75
234 1 0.125 0.583333 0.666667
255 1 0.125 0.666667 0.583333
258 1 0.125 0.75 0.666667
259 1 0.125 0.666667 0.75
376 1 0.166667 0.583333 0.583333
378 1 0.208333 0.583333 0.666667
380 1 0.166667 0.583333 0.75
399 1 0.208333 0.666667 0.583333
400 1 0.166667 0.75 0.583333
401 1 0.166667 0.666667 0.666667
402 1 0.208333 0.75 0.666667
403 1 0.208333 0.666667 0.75
404 1 0.166667 0.75 0.75
520 1 0.25 0.583333 0.583333
522 1 0.291667 0.583333 0.666667
524 1 0.25 0.583333 0.75
543 1 0.291667 0.666667 0.583333
544 1 0.25 0.75 0.583333
545 1 0.25 0.666667 0.666667
546 1 0.291667 0.75 0.666667
547 1 0.291667 0.666667 0.75
548 1 0.25 0.75 0.75
664 1 0.333333 0.583333 0.583333
666 1 0.375 0.583333 0.666667
668 1 0.333333 0.583333 0.75
687 1 0.375 0.666667 0.583333
688 1 0.333333 0.75 0.583333
689 1 0.333333 0.666667 0.666667
690 1 0.375 0.75 0.666667
691 1 0.375 0.666667 0.75
692 1 0.333333 0.75 0.75
808 1 0.416667 0.583333 0.583333
812 1 0.416667 0.583333 0.75
832 1 0.416667 0.75 0.583333
833 1 0.416667 0.666667 0.666667
836 1 0.416667 0.75 0.75
810 1 0.458333 0.583333 0.666667
831 1 0.458333 0.666667 0.583333
834 1 0.458333 0.75 0.666667
835 1 0.458333 0.666667 0.75
135 1 0.0416667 0.833333 0.583333
136 1 0 0.916667 0.583333
137 1 0 0.833333 0.666667
138 1 0.0416667 0.916667 0.666667
139 1 0.0416667 0.833333 0.75
140 1 0 0.916667 0.75
280 1 0.0833333 0.916667 0.583333
281 1 0.0833333 0.833333 0.666667
284 1 0.0833333 0.916667 0.75
279 1 0.125 0.833333 0.583333
282 1 0.125 0.916667 0.666667
283 1 0.125 0.833333 0.75
423 1 0.208333 0.833333 0.583333
424 1 0.166667 0.916667 0.583333
425 1 0.166667 0.833333 0.666667
426 1 0.208333 0.916667 0.666667
427 1 0.208333 0.833333 0.75
428 1 0.166667 0.916667 0.75
567 1 0.291667 0.833333 0.583333
568 1 0.25 0.916667 0.583333
569 1 0.25 0.833333 0.666667
570 1 0.291667 0.916667 0.666667
571 1 0.291667 0.833333 0.75
572 1 0.25 0.916667 0.75
711 1 0.375 0.833333 0.583333
712 1 0.333333 0.916667 0.583333
713 1 0.333333 0.833333 0.666667
714 1 0.375 0.916667 0.666667
715 1 0.375 0.833333 0.75
716 1 0.333333 0.916667 0.75
856 1 0.416667 0.916667 0.583333
857 1 0.416667 0.833333 0.666667
860 1 0.416667 0.916667 0.75
855 1 0.458333 0.833333 0.583333
858 1 0.458333 0.916667 0.666667
859 1 0.458333 0.833333 0.75
21 1 0 0 0.833333
22 1 0.0416667 0.0833333 0.833333
23 1 0.0416667 0 0.916667
24 1 0 0.0833333 0.916667
45 1 0 0.166667 0.833333
46 1 0.0416667 0.25 0.833333
47 1 0.0416667 0.166667 0.916667
48 1 0 0.25 0.916667
165 1 0.0833333 0 0.833333
168 1 0.0833333 0.0833333 0.916667
189 1 0.0833333 0.166667 0.833333
192 1 0.0833333 0.25 0.916667
166 1 0.125 0.0833333 0.833333
167 1 0.125 0 0.916667
190 1 0.125 0.25 0.833333
191 1 0.125 0.166667 0.916667
309 1 0.166667 0 0.833333
310 1 0.208333 0.0833333 0.833333
311 1 0.208333 0 0.916667
312 1 0.166667 0.0833333 0.916667
333 1 0.166667 0.166667 0.833333
334 1 0.208333 0.25 0.833333
335 1 0.208333 0.166667 0.916667
336 1 0.166667 0.25 0.916667
453 1 0.25 0 0.833333
454 1 0.291667 0.0833333 0.833333
455 1 0.291667 0 0.916667
456 1 0.25 0.0833333 0.916667
477 1 0.25 0.166667 0.833333
478 1 0.291667 0.25 0.833333
479 1 0.291667 0.166667 0.916667
480 1 0.25 0.25 0.916667
597 1 0.333333 0 0.833333
598 1 0.375 0.0833333 0.833333
599 1 0.375 0 0.916667
600 1 0.333333 0.0833333 0.916667
621 1 0.333333 0.166667 0.833333
622 1 0.375 0.25 0.833333
623 1 0.375 0.166667 0.916667
624 1 0.333333 0.25 0.916667
741 1 0.416667 0 0.833333
744 1 0.416667 0.0833333 0.916667
765 1 0.416667 0.166667 0.833333
768 1 0.416667 0.25 0.916667
742 1 0.458333 0.0833333 0.833333
743 1 0.458333 0 0.916667
766 1 0.458333 0.25 0.833333
767 1 0.458333 0.166667 0.916667
69 1 0 0.333333 0.833333
70 1 0.0416667 0.416667 0.833333
71 1 0.0416667 0.333333 0.916667
72 1 0 0.416667 0.916667
93 1 0 0.5 0.833333
95 1 0.0416667 0.5 0.916667
213 1 0.0833333 0.333333 0.833333
216 1 0.0833333 0.416667 0.916667
237 1 0.0833333 0.5 0.833333
214 1 0.125 0.416667 0.833333
215 1 0.125 0.333333 0.916667
239 1 0.125 0.5 0.916667
357 1 0.166667 0.333333 0.833333
358 1 0.208333 0.416667 0.833333
359 1 0.208333 0.333333 0.916667
360 1 0.166667 0.416667 0.916667
381 1 0.166667 0.5 0.833333
383 1 0.208333 0.5 0.916667
501 1 0.25 0.333333 0.833333
502 1 0.291667 0.416667 0.833333
503 1 0.291667 0.333333 0.916667
504 1 0.25 0.416667 0.916667
525 1 0.25 0.5 0.833333
527 1 0.291667 0.5 0.916667
645 1 0.333333 0.333333 0.833333
646 1 0.375 0.416667 0.833333
647 1 0.375 0.333333 0.916667
648 1 0.333333 0.416667 0.916667
669 1 0.333333 0.5 0.833333
671 1 0.375 0.5 0.916667
789 1 0.416667 0.333333 0.833333
792 1 0.416667 0.416667 0.916667
813 1 0.416667 0.5 0.833333
790 1 0.458333 0.416667 0.833333
791 1 0.458333 0.333333 0.916667
815 1 0.458333 0.5 0.916667
94 1 0.0416667 0.583333 0.833333
96 1 0 0.583333 0.916667
117 1 0 0.666667 0.833333
118 1 0.0416667 0.75 0.833333
119 1 0.0416667 0.666667 0.916667
120 1 0 0.75 0.916667
240 1 0.0833333 0.583333 0.916667
261 1 0.0833333 0.666667 0.833333
264 1 0.0833333 0.75 0.916667
238 1 0.125 0.583333 0.833333
262 1 0.125 0.75 0.833333
263 1 0.125 0.666667 0.916667
382 1 0.208333 0.583333 0.833333
384 1 0.166667 0.583333 0.916667
405 1 0.166667 0.666667 0.833333
406 1 0.208333 0.75 0.833333
407 1 0.208333 0.666667 0.916667
408 1 0.166667 0.75 0.916667
526 1 0.291667 0.583333 0.833333
528 1 0.25 0.583333 0.916667
549 1 0.25 0.666667 0.833333
550 1 0.291667 0.75 0.833333
551 1 0.291667 0.666667 0.916667
552 1 0.25 0.75 0.916667
670 1 0.375 0.583333 0.833333
672 1 0.333333 0.583333 0.916667
693 1 0.333333 0.666667 0.833333
694 1 0.375 0.75 0.833333
695 1 0.375 0.666667 0.916667
696 1 0.333333 0.75 0.916667
816 1 0.416667 0.583333 0.916667
837 1 0.416667 0.666667 0.833333
840 1 0.416667 0.75 0.916667
814 1 0.458333 0.583333 0.833333
838 1 0.458333 0.75 0.833333
839 1 0.458333 0.666667 0.916667
141 1 0 0.833333 0.833333
142 1 0.0416667 0.916667 0.833333
143 1 0.0416667 0.833333 0.916667
144 1 0 0.916667 0.916667
285 1 0.0833333 0.833333 0.833333
288 1 0.0833333 0.916667 0.916667
286 1 0.125 0.916667 0.833333
287 1 0.125 0.833333 0.916667
429 1 0.166667 0.833333 0.833333
430 1 0.208333 0.916667 0.833333
431 1 0.208333 0.833333 0.916667
432 1 0.166667 0.916667 0.916667
573 1 0.25 0.833333 0.833333
574 1 0.291667 0.916667 0.833333
575 1 0.291667 0.833333 0.916667
576 1 0.25 0.916667 0.916667
717 1 0.333333 0.833333 0.833333
718 1 0.375 0.916667 0.833333
719 1 0.375 0.833333 0.916667
720 1 0.333333 0.916667 0.916667
861 1 0.416667 0.833333 0.833333
864 1 0.416667 0.916667 0.916667
862 1 0.458333 0.916667 0.833333
863 1 0.458333 0.833333 0.916667
ITEM: TIMESTEP
5000
ITEM: NUMBER OF ATOMS
864
ITEM: BOX BOUNDS pp pp pp
0.0000000000000000e+00 1.5119052598738476e+01
0.0000000000000000e+00 7.5595262993692378e+00
0.0000000000000000e+00 7.5595262993692378e+00
ITEM: ATOMS id type xs ys zs
148 1 0.0106659 0.0943729 0.0843497
149 1 0.999699 0.00787937 0.174583
172 1 0.0253372 0.216574 0.128412
173 1 0.00152904 0.129975 0.212899
150 1 0.0647093 0.0614025 0.167917
170 1 0.0797166 0.254203 0.0107634
171 1 0.0744411 0.148772 0.0843615
174 1 0.0807865 0.236321 0.193649
147 1 0.0655871 0.0241688 0.0403957
291 1 0.199431 0.00499853 0.0612798
292 1 0.141312 0.0754767 0.0501916
293 1 0.13133 0.014174 0.15727
294 1 0.190249 0.0666858 0.181129
315 1 0.183566 0.168521 0.104439
317 1 0.121086 0.131222 0.203871
316 1 0.126599 0.214108 0.107791
319 1 0.1822 0.167419 0.262895
314 1 0.225844 0.226059 0.016763
290 1 0.213388 0.106342 0.00258652
433 1 0.272533 0.0312252 0.0338963
434 1 0.337347 0.0910554 0.0211932
436 1 0.239863 0.114168 0.116031
438 1 0.301967 0.0678255 0.140219
459 1 0.336167 0.190457 0.0955626
461 1 0.28105 0.183497 0.181679
463 1 0.341687 0.139812 0.211464
457 1 0.281409 0.159515 0.031342
440 1 0.253413 0.0722328 0.235152
577 1 0.386335 0.00592391 0.999727
578 1 0.443828 0.0958831 0.0167424
580 1 0.378016 0.0692874 0.111684
582 1 0.439544 0.07728 0.150096
584 1 0.390012 0.0596024 0.233966
601 1 0.389646 0.172499 0.033206
603 1 0.454092 0.198006 0.0894298
605 1 0.400296 0.178681 0.165383
607 1 0.475454 0.167958 0.209417
724 1 0.500324 0.0779097 0.110696
728 1 0.514094 0.059057 0.238661
745 1 0.503714 0.16061 0.00841731
749 1 0.548899 0.158399 0.180302
722 1 0.559136 0.0743517 0.0499584
746 1 0.563503 0.242356 0.00933079
726 1 0.584469 0.0403907 0.170891
747 1 0.604775 0.169085 0.0914338
751 1 0.621441 0.163726 0.224491
5 1 0.842708 0.027872 0.129819
29 1 0.85622 0.166313 0.164878
3 1 0.947422 0.046861 0.0581687
6 1 0.905546 0.0703875 0.158277
26 1 0.919844 0.223144 0.0121811
27 1 0.95808 0.173545 0.113019
30 1 0.911617 0.250902 0.173298
4 1 0.885435 0.116786 0.0432512
31 1 0.937025 0.143256 0.246129
193 1 0.0156583 0.291987 0.0308474
196 1 0.0172838 0.416836 0.051131
197 1 0.0017244 0.33722 0.162382
195 1 0.0643847 0.330882 0.107208
198 1 0.0905956 0.451899 0.136558
176 1 0.0250236 0.245883 0.254351
199 1 0.0598149 0.370486 0.225344
221 1 0.00621375 0.479477 0.158844
318 1 0.220963 0.235109 0.18212
339 1 0.194848 0.310329 0.0899742
340 1 0.14342 0.430318 0.0639748
341 1 0.129077 0.339061 0.143276
342 1 0.197325 0.4397 0.126586
344 1 0.124583 0.404184 0.248563
337 1 0.140213 0.303728 0.0256137
320 1 0.141611 0.257134 0.235262
343 1 0.184787 0.357884 0.22286
460 1 0.27425 0.27894 0.0826409
462 1 0.32236 0.278702 0.173937
483 1 0.335436 0.345188 0.0705419
484 1 0.269539 0.40828 0.0527876
485 1 0.242723 0.358825 0.159361
486 1 0.308152 0.408268 0.158176
507 1 0.339207 0.483528 0.0615319
511 1 0.331306 0.475738 0.251592
509 1 0.257549 0.481041 0.152583
464 1 0.269188 0.292393 0.247701
604 1 0.396438 0.284689 0.0871823
606 1 0.439201 0.281274 0.191306
627 1 0.458032 0.324956 0.0691092
628 1 0.399224 0.413374 0.0668795
629 1 0.373437 0.357814 0.180715
630 1 0.439838 0.408483 0.162791
653 1 0.376344 0.480821 0.16291
752 1 0.514099 0.269407 0.237822
651 1 0.489419 0.453809 0.0520414
748 1 0.515856 0.249823 0.106886
772 1 0.558362 0.368771 0.0858835
773 1 0.501208 0.37122 0.156683
797 1 0.539944 0.483403 0.143465
793 1 0.55084 0.498805 0.0117828
750 1 0.57638 0.283266 0.180009
774 1 0.599233 0.416253 0.194975
771 1 0.618794 0.308505 0.063735
795 1 0.614191 0.452224 0.0540333
28 1 0.85882 0.258538 0.0609327
52 1 0.83215 0.470587 0.0582801
32 1 0.847559 0.293519 0.219513
50 1 0.950774 0.441335 0.0213319
51 1 0.952104 0.317844 0.0765243
54 1 0.943448 0.429413 0.153043
55 1 0.907715 0.35962 0.253151
53 1 0.885367 0.372831 0.126331
77 1 0.863987 0.49534 0.178578
219 1 0.0550561 0.518704 0.053312
220 1 0.991739 0.567891 0.068031
244 1 0.985856 0.686129 0.116739
245 1 0.0148821 0.604564 0.200819
222 1 0.0786773 0.576078 0.1859
242 1 0.0789358 0.731764 0.0106902
243 1 0.0495305 0.643176 0.0876129
246 1 0.0530364 0.723379 0.189015
363 1 0.227683 0.505767 0.035279
365 1 0.148904 0.507452 0.180952
362 1 0.186325 0.594991 0.0182791
364 1 0.116924 0.57581 0.0871864
366 1 0.205174 0.568415 0.139751
387 1 0.167998 0.668693 0.111986
388 1 0.106789 0.697739 0.122006
389 1 0.139751 0.631543 0.218353
391 1 0.204904 0.647997 0.249695
386 1 0.208238 0.723595 0.0264625
506 1 0.331275 0.606264 0.0230545
508 1 0.27129 0.589588 0.0951787
510 1 0.325686 0.565831 0.15784
512 1 0.256284 0.581883 0.217803
529 1 0.270101 0.688263 0.0214603
531 1 0.318388 0.694242 0.0997726
533 1 0.234921 0.688335 0.141443
535 1 0.300171 0.669623 0.212849
649 1 0.431224 0.52255 0.0256042
652 1 0.383836 0.581941 0.0915356
654 1 0.456374 0.532859 0.142714
656 1 0.406974 0.575238 0.217229
673 1 0.383393 0.690197 0.0269838
675 1 0.436164 0.655322 0.102336
677 1 0.368212 0.678676 0.178511
679 1 0.456763 0.650459 0.227814
650 1 0.488737 0.592046 0.047144
796 1 0.549839 0.612864 0.0848236
800 1 0.512291 0.580576 0.211705
817 1 0.501862 0.723909 0.015684
821 1 0.500377 0.685569 0.138403