ITEM: TIMESTEP
0
ITEM: NUMBER OF ATOMS
256
ITEM: BOX BOUNDS pp pp pp
0.0000000000000000e+00 1.0079368399158984e+01
0.0000000000000000e+00 5.0396841995794919e+00
0.0000000000000000e+00 5.0396841995794919e+00
ITEM: ATOMS id type xs ys zs
1 1 0 0 0
2 1 0.0625 0.125 0
3 1 0.0625 0 0.125
4 1 0 0.125 0.125
5 1 0 0 0.25
6 1 0.0625 0.125 0.25
17 1 0 0.25 0
19 1 0.0625 0.25 0.125
21 1 0 0.25 0.25
65 1 0.125 0 0
68 1 0.125 0.125 0.125
69 1 0.125 0 0.25
81 1 0.125 0.25 0
85 1 0.125 0.25 0.25
66 1 0.1875 0.125 0
67 1 0.1875 0 0.125
70 1 0.1875 0.125 0.25
83 1 0.1875 0.25 0.125
129 1 0.25 0 0
130 1 0.3125 0.125 0
131 1 0.3125 0 0.125
132 1 0.25 0.125 0.125
133 1 0.25 0 0.25
134 1 0.3125 0.125 0.25
145 1 0.25 0.25 0
147 1 0.3125 0.25 0.125
149 1 0.25 0.25 0.25
193 1 0.375 0 0
194 1 0.4375 0.125 0
195 1 0.4375 0 0.125
196 1 0.375 0.125 0.125
197 1 0.375 0 0.25
198 1 0.4375 0.125 0.25
209 1 0.375 0.25 0
211 1 0.4375 0.25 0.125
213 1 0.375 0.25 0.25
18 1 0.0625 0.375 0
20 1 0 0.375 0.125
22 1 0.0625 0.375 0.25
33 1 0 0.5 0
34 1 0.0625 0.625 0
35 1 0.0625 0.5 0.125
36 1 0 0.625 0.125
37 1 0 0.5 0.25
38 1 0.0625 0.625 0.25
84 1 0.125 0.375 0.125
97 1 0.125 0.5 0
100 1 0.125 0.625 0.125
101 1 0.125 0.5 0.25
82 1 0.1875 0.375 0
86 1 0.1875 0.375 0.25
98 1 0.1875 0.625 0
99 1 0.1875 0.5 0.125
102 1 0.1875 0.625 0.25
146 1 0.3125 0.375 0
148 1 0.25 0.375 0.125
150 1 0.3125 0.375 0.25
161 1 0.25 0.5 0
162 1 0.3125 0.625 0
163 1 0.3125 0.5 0.125
164 1 0.25 0.625 0.125
165 1 0.25 0.5 0.25
166 1 0.3125 0.625 0.25
210 1 0.4375 0.375 0
212 1 0.375 0.375 0.125
214 1 0.4375 0.375 0.25
225 1 0.375 0.5 0
226 1 0.4375 0.625 0
227 1 0.4375 0.5 0.125
228 1 0.375 0.625 0.125
229 1 0.375 0.5 0.25
230 1 0.4375 0.625 0.25
49 1 0 0.75 0
50 1 0.0625 0.875 0
51 1 0.0625 0.75 0.125
52 1 0 0.875 0.125
53 1 0 0.75 0.25
54 1 0.0625 0.875 0.25
113 1 0.125 0.75 0
116 1 0.125 0.875 0.125
117 1 0.125 0.75 0.25
114 1 0.1875 0.875 0
115 1 0.1875 0.75 0.125
118 1 0.1875 0.875 0.25
177 1 0.25 0.75 0
178 1 0.3125 0.875 0
179 1 0.3125 0.75 0.125
180 1 0.25 0.875 0.125
181 1 0.25 0.75 0.25
182 1 0.3125 0.875 0.25
241 1 0.375 0.75 0
242 1 0.4375 0.875 0
243 1 0.4375 0.75 0.125
244 1 0.375 0.875 0.125
245 1 0.375 0.75 0.25
246 1 0.4375 0.875 0.25
7 1 0.0625 0 0.375
8 1 0 0.125 0.375
9 1 0 0 0.5
10 1 0.0625 0.125 0.5
11 1 0.0625 0 0.625
12 1 0 0.125 0.625
23 1 0.0625 0.25 0.375
25 1 0 0.25 0.5
27 1 0.0625 0.25 0.625
72 1 0.125 0.125 0.375
73 1 0.125 0 0.5
76 1 0.125 0.125 0.625
89 1 0.125 0.25 0.5
71 1 0.1875 0 0.375
74 1 0.1875 0.125 0.5
75 1 0.1875 0 0.625
87 1 0.1875 0.25 0.375
91 1 0.1875 0.25 0.625
135 1 0.3125 0 0.375
136 1 0.25 0.125 0.375
137 1 0.25 0 0.5
138 1 0.3125 0.125 0.5
139 1 0.3125 0 0.625
140 1 0.25 0.125 0.625
151 1 0.3125 0.25 0.375
153 1 0.25 0.25 0.5
155 1 0.3125 0.25 0.625
199 1 0.4375 0 0.375
200 1 0.375 0.125 0.375
201 1 0.375 0 0.5
202 1 0.4375 0.125 0.5
203 1 0.4375 0 0.625
204 1 0.375 0.125 0.625
215 1 0.4375 0.25 0.375
217 1 0.375 0.25 0.5
219 1 0.4375 0.25 0.625
24 1 0 0.375 0.375
26 1 0.0625 0.375 0.5
28 1 0 0.375 0.625
39 1 0.0625 0.5 0.375
40 1 0 0.625 0.375
41 1 0 0.5 0.5
42 1 0.0625 0.625 0.5
43 1 0.0625 0.5 0.625
44 1 0 0.625 0.625
88 1 0.125 0.375 0.375
92 1 0.125 0.375 0.625
104 1 0.125 0.625 0.375
105 1 0.125 0.5 0.5
108 1 0.125 0.625 0.625
90 1 0.1875 0.375 0.5
103 1 0.1875 0.5 0.375
106 1 0.1875 0.625 0.5
107 1 0.1875 0.5 0.625
152 1 0.25 0.375 0.375
154 1 0.3125 0.375 0.5
156 1 0.25 0.375 0.625
167 1 0.3125 0.5 0.375
168 1 0.25 0.625 0.375
169 1 0.25 0.5 0.5
170 1 0.3125 0.625 0.5
171 1 0.3125 0.5 0.625
172 1 0.25 0.625 0.625
216 1 0.375 0.375 0.375
218 1 0.4375 0.375 0.5
220 1 0.375 0.375 0.625
231 1 0.4375 0.5 0.375
232 1 0.375 0.625 0.375
233 1 0.375 0.5 0.5
234 1 0.4375 0.625 0.5
235 1 0.4375 0.5 0.625
236 1 0.375 0.625 0.625
55 1 0.0625 0.75 0.375
56 1 0 0.875 0.375
57 1 0 0.75 0.5
58 1 0.0625 0.875 0.5
59 1 0.0625 0.75 0.625
60 1 0 0.875 0.625
120 1 0.125 0.875 0.375
121 1 0.125 0.75 0.5
124 1 0.125 0.875 0.625
119 1 0.1875 0.75 0.375
122 1 0.1875 0.875 0.5
123 1 0.1875 0.75 0.625
183 1 0.3125 0.75 0.375
184 1 0.25 0.875 0.375
185 1 0.25 0.75 0.5
186 1 0.3125 0.875 0.5
187 1 0.3125 0.75 0.625
188 1 0.25 0.875 0.625
247 1 0.4375 0.75 0.375
248 1 0.375 0.875 0.375
249 1 0.375 0.75 0.5
250 1 0.4375 0.875 0.5
251 1 0.4375 0.75 0.625
252 1 0.375 0.875 0.625
13 1 0 0 0.75
14 1 0.0625 0.125 0.75
15 1 0.0625 0 0.875
16 1 0 0.125 0.875
29 1 0 0.25 0.75
31 1 0.0625 0.25 0.875
77 1 0.125 0 0.75
80 1 0.125 0.125 0.875
93 1 0.125 0.25 0.75
78 1 0.1875 0.125 0.75
79 1 0.1875 0 0.875
95 1 0.1875 0.25 0.875
141 1 0.25 0 0.75
142 1 0.3125 0.125 0.75
143 1 0.3125 0 0.875
144 1 0.25 0.125 0.875
157 1 0.25 0.25 0.75
159 1 0.3125 0.25 0.875
205 1 0.375 0 0.75
206 1 0.4375 0.125 0.75
207 1 0.4375 0 0.875
208 1 0.375 0.125 0.875
221 1 0.375 0.25 0.75
223 1 0.4375 0.25 0.875
30 1 0.0625 0.375 0.75
32 1 0 0.375 0.875
45 1 0 0.5 0.75
46 1 0.0625 0.625 0.75
47 1 0.0625 0.5 0.875
48 1 0 0.625 0.875
96 1 0.125 0.375 0.875
109 1 0.125 0.5 0.75
112 1 0.125 0.625 0.875
94 1 0.1875 0.375 0.75
110 1 0.1875 0.625 0.75
111 1 0.1875 0.5 0.875
158 1 0.3125 0.375 0.75
160 1 0.25 0.375 0.875
173 1 0.25 0.5 0.75
174 1 0.3125 0.625 0.75
175 1 0.3125 0.5 0.875
176 1 0.25 0.625 0.875
222 1 0.4375 0.375 0.75
224 1 0.375 0.375 0.875
237 1 0.375 0.5 0.75
238 1 0.4375 0.625 0.75
239 1 0.4375 0.5 0.875
240 1 0.375 0.625 0.875
61 1 0 0.75 0.75
62 1 0.0625 0.875 0.75
63 1 0.0625 0.75 0.875
64 1 0 0.875 0.875
125 1 0.125 0.75 0.75
128 1 0.125 0.875 0.875
126 1 0.1875 0.875 0.75
127 1 0.1875 0.75 0.875
189 1 0.25 0.75 0.75
190 1 0.3125 0.875 0.75
191 1 0.3125 0.75 0.875
192 1 0.25 0.875 0.875
253 1 0.375 0.75 0.75
254 1 0.4375 0.875 0.75
255 1 0.4375 0.75 0.875
256 1 0.375 0.875 0.875
ITEM: TIMESTEP
5000
ITEM: NUMBER OF ATOMS
256
ITEM: BOX BOUNDS pp pp pp
0.0000000000000000e+00 1.0079368399158984e+01
0.0000000000000000e+00 5.0396841995794919e+00
0.0000000000000000e+00 5.0396841995794919e+00
ITEM: ATOMS id type xs ys zs
68 1 0.0338875 0.166928 0.141164
85 1 0.99839 0.2688 0.32866
67 1 0.115714 0.0487759 0.0699531
70 1 0.102034 0.150069 0.283601
83 1 0.15658 0.26846 0.135494
132 1 0.249406 0.153308 0.118949
145 1 0.331868 0.288037 0.083724
133 1 0.303584 0.0150985 0.255228
148 1 0.246217 0.33346 0.219487
149 1 0.378039 0.165525 0.22528
134 1 0.469558 0.98735 0.180109
147 1 0.445857 0.208903 0.0617642
196 1 0.531569 0.120227 0.00826652
213 1 0.523086 0.176603 0.195779
150 1 0.423701 0.339602 0.227537
197 1 0.594766 0.0431881 0.154259
198 1 0.63766 0.151142 0.299041
211 1 0.636319 0.26417 0.127966
195 1 0.709017 0.0464445 0.171734
17 1 0.717432 0.220856 0.0683922
21 1 0.760763 0.221275 0.296327
5 1 0.784128 0.00567241 0.300386
4 1 0.803895 0.134156 0.139496
6 1 0.930156 0.18631 0.164513
7 1 0.902063 0.0275649 0.320077
8 1 0.853408 0.203705 0.290795
3 1 0.886999 0.00877476 0.129374
65 1 0.957086 0.0725568 6.73906e-05
84 1 0.0604577 0.375272 0.18403
100 1 0.0581748 0.601895 0.167581
101 1 0.00385002 0.47925 0.314824
86 1 0.149518 0.392826 0.301026
102 1 0.151883 0.607516 0.295115
98 1 0.12164 0.63258 0.996463
99 1 0.149986 0.476198 0.114891
161 1 0.257866 0.449164 0.044014
164 1 0.223366 0.702376 0.103216
165 1 0.249372 0.535442 0.227398
163 1 0.348246 0.485855 0.148438
146 1 0.443354 0.427152 0.0517954
162 1 0.420382 0.616502 0.103493
225 1 0.516409 0.5255 0.150397
229 1 0.422709 0.539825 0.293818
212 1 0.54653 0.333026 0.0873028
232 1 0.586837 0.637382 0.263643
226 1 0.681118 0.59941 0.940412
227 1 0.624209 0.535111 0.119312
231 1 0.605601 0.420333 0.309198
210 1 0.691181 0.425053 0.0501035
214 1 0.693655 0.362644 0.244388
37 1 0.765992 0.542375 0.221028
33 1 0.788686 0.489514 0.0155201
35 1 0.960308 0.459681 0.125208
19 1 0.866713 0.386052 0.0255426
38 1 0.934274 0.6398 0.21604
22 1 0.914502 0.35984 0.25334
20 1 0.788537 0.340161 0.151676
36 1 0.853073 0.515281 0.192556
69 1 0.981981 0.980382 0.181784
113 1 0.97881 0.67738 0.0369469
116 1 0.0505748 0.898877 0.0564558
117 1 0.00498289 0.777046 0.20483
118 1 0.140178 0.96501 0.2394
115 1 0.123917 0.761675 0.167266
131 1 0.368133 0.0084322 0.078065
177 1 0.316688 0.79586 0.0596468
180 1 0.23971 0.94226 0.0909721
181 1 0.265167 0.820975 0.263931
228 1 0.500279 0.703544 0.253034
166 1 0.33068 0.648514 0.254474
179 1 0.451576 0.796519 0.103255
182 1 0.374794 0.848683 0.230144
241 1 0.544595 0.71085 0.0265165
244 1 0.535053 0.912545 0.045848
245 1 0.56823 0.858396 0.260097
243 1 0.634686 0.760151 0.0849798
246 1 0.660171 0.896369 0.222426
230 1 0.69508 0.672725 0.204909
242 1 0.698462 0.884669 0.0262799
49 1 0.750728 0.672288 0.0558133
53 1 0.744111 0.822261 0.28077
52 1 0.792342 0.903835 0.119074
50 1 0.939197 0.86835 0.00703976
51 1 0.843868 0.720554 0.141547
54 1 0.906186 0.844489 0.223031
72 1 0.00599009 0.0725171 0.370301
89 1 0.00491827 0.162406 0.576456
74 1 0.107458 0.0354909 0.447261
88 1 0.0772133 0.250217 0.452681
91 1 0.14085 0.182438 0.604168
87 1 0.19622 0.217475 0.353431
136 1 0.304658 0.174373 0.410295
140 1 0.237213 0.21519 0.567016
152 1 0.33227 0.3505 0.333004
153 1 0.367708 0.275998 0.55961
138 1 0.430157 0.109277 0.554217
151 1 0.461172 0.162086 0.363035
155 1 0.477189 0.29582 0.611299
135 1 0.388755 0.025016 0.375712
201 1 0.521832 0.00620148 0.533336
200 1 0.545728 0.0540142 0.337327
217 1 0.537507 0.202689 0.490727
202 1 0.623152 0.0868231 0.569614
215 1 0.627297 0.263426 0.450558
219 1 0.656018 0.263942 0.640276
25 1 0.723108 0.165582 0.463974
23 1 0.924457 0.177747 0.43691
10 1 0.834131 0.0807466 0.457602
27 1 0.901884 0.151333 0.62581
12 1 0.809618 0.130846 0.633461
92 1 0.0510533 0.361225 0.605679
104 1 0.0541017 0.665703 0.363304
105 1 0.989654 0.551384 0.497887
108 1 0.975267 0.639206 0.685683
103 1 0.0894635 0.491659 0.454681
90 1 0.162937 0.356414 0.501031
107 1 0.184203 0.565264 0.583432
156 1 0.320372 0.456853 0.60998
168 1 0.244673 0.653086 0.387165
169 1 0.242112 0.45998 0.444444
172 1 0.296387 0.647646 0.549404
167 1 0.3431 0.527135 0.423469
154 1 0.438473 0.371225 0.434431
171 1 0.441537 0.538098 0.559546
233 1 0.525803 0.542472 0.382696
236 1 0.532321 0.630893 0.609308
216 1 0.512136 0.331843 0.316149
220 1 0.548875 0.421673 0.540068
235 1 0.605935 0.582144 0.4823
222 1 0.644218 0.468457 0.623638
218 1 0.713726 0.385243 0.444928
234 1 0.687767 0.569113 0.359343
41 1 0.775363 0.537347 0.489473
28 1 0.747777 0.401821 0.610558
26 1 0.935617 0.379824 0.51124
39 1 0.910133 0.526738 0.373607
43 1 0.873971 0.545858 0.569849
24 1 0.831396 0.407526 0.37223
40 1 0.809305 0.660095 0.350639
30 1 0.863575 0.333527 0.632923
73 1 0.0238562 0.945333 0.542385
106 1 0.08951 0.672321 0.567376
120 1 0.0566668 0.890691 0.352885
121 1 0.989844 0.750225 0.50651
122 1 0.126776 0.86008 0.560239
75 1 0.200347 0.00729973 0.580774
71 1 0.220354 0.0184708 0.382532
137 1 0.31671 0.996511 0.5208
119 1 0.159192 0.798636 0.365588
123 1 0.227436 0.727878 0.667883
184 1 0.353921 0.785976 0.425723
185 1 0.251479 0.841032 0.471835
170 1 0.442383 0.683034 0.431613
183 1 0.467316 0.878367 0.37318
186 1 0.410109 0.914026 0.570156
187 1 0.403981 0.719807 0.640246
252 1 0.508677 0.832588 0.610325
249 1 0.550667 0.756223 0.436865
248 1 0.600834 0.94105 0.459088
247 1 0.640956 0.769931 0.359004
250 1 0.683935 0.873815 0.563202
251 1 0.632443 0.694401 0.624962
199 1 0.686877 0.9933 0.387328
9 1 0.767462 0.964671 0.521268
57 1 0.715407 0.719788 0.456434
11 1 0.955701 0.91638 0.674541
55 1 0.906047 0.722224 0.407481
58 1 0.930869 0.947776 0.491713
42 1 0.820778 0.721613 0.521534
59 1 0.899562 0.736469 0.635571
56 1 0.843474 0.871852 0.402821
60 1 0.854697 0.908548 0.629412
76 1 0.0859551 0.0182325 0.680378
81 1 0.977495 0.294969 0.0157989
80 1 0.0465041 0.145118 0.929733
93 1 0.997512 0.227666 0.771959
95 1 0.121837 0.21549 0.804411
66 1 0.192453 0.0983591 0.944373
78 1 0.221861 0.140725 0.756785
141 1 0.323436 0.0842747 0.715097
144 1 0.298738 0.193934 0.910047
157 1 0.294469 0.279125 0.715455
142 1 0.408133 0.189756 0.733161
130 1 0.395739 0.103038 0.909351
159 1 0.396309 0.315165 0.907767
208 1 0.49224 0.197637 0.837437
204 1 0.540865 0.132294 0.678476
221 1 0.577749 0.291543 0.755557
143 1 0.548194 0.998324 0.852711
193 1 0.659534 0.0688148 0.0145271
209 1 0.612293 0.239174 0.946164
206 1 0.627432 0.0890292 0.75394
1 1 0.750979 0.0415083 0.988663
203 1 0.715618 0.082717 0.645795
194 1 0.697628 0.194179 0.873402
29 1 0.756175 0.246576 0.73603
2 1 0.874223 0.195632 0.975698
14 1 0.913337 0.075352 0.816109
31 1 0.896303 0.279896 0.803104
16 1 0.802007 0.123739 0.845676
32 1 0.782975 0.298691 0.916741
82 1 0.0916837 0.304753 0.98568
97 1 0.0406567 0.490084 0.0114588
96 1 0.0457034 0.389143 0.829495
112 1 0.0110032 0.589776 0.853272
110 1 0.0911511 0.52665 0.71717
94 1 0.18014 0.36664 0.698937
111 1 0.162318 0.483534 0.884867
160 1 0.209982 0.307778 0.915493
173 1 0.278354 0.454518 0.802954
176 1 0.245616 0.613488 0.924607
158 1 0.395018 0.39358 0.717046
174 1 0.426044 0.56266 0.775892
175 1 0.350203 0.516891 0.95571
224 1 0.502693 0.401252 0.900839
240 1 0.485818 0.623276 0.922324
237 1 0.557791 0.500463 0.747583
223 1 0.638866 0.405321 0.858102
238 1 0.688685 0.57111 0.748787
239 1 0.579733 0.531478 0.936541
44 1 0.78298 0.549504 0.700159
45 1 0.741591 0.448631 0.847313
48 1 0.764878 0.645745 0.854278
18 1 0.936534 0.449962 0.900612
109 1 0.956972 0.437771 0.709677
34 1 0.89211 0.575777 0.0127263
46 1 0.884109 0.61355 0.792293
47 1 0.838448 0.457802 0.842358
124 1 0.0454107 0.802164 0.694072
77 1 0.0103374 0.957516 0.858306
128 1 0.0593944 0.770071 0.888464
79 1 0.116131 0.975201 0.874462
126 1 0.170774 0.875938 0.736855
127 1 0.159683 0.677448 0.811769
188 1 0.279908 0.902454 0.688768
129 1 0.296069 0.990946 0.900935
114 1 0.171299 0.829009 0.975347
189 1 0.323905 0.650929 0.759251
192 1 0.261986 0.802708 0.865403
139 1 0.458689 0.019845 0.755024
178 1 0.441284 0.931798 0.943475
190 1 0.377684 0.882228 0.776538
191 1 0.389144 0.71287 0.918062
256 1 0.488653 0.802901 0.807131
205 1 0.607332 0.887255 0.704337
253 1 0.585199 0.69651 0.808729
207 1 0.684209 0.965753 0.835683
254 1 0.685762 0.756768 0.780473
255 1 0.615157 0.855751 0.92382
13 1 0.77532 0.941577 0.740611
61 1 0.77537 0.738715 0.676405
64 1 0.768439 0.840185 0.899297
125 1 0.957091 0.767319 0.833266
15 1 0.844371 0.9758 0.958072
62 1 0.881212 0.865569 0.80215
63 1 0.855294 0.748136 0.946603
ITEM: TIMESTEP
10000
ITEM: NUMBER OF ATOMS
256
ITEM: BOX BOUNDS pp pp pp
0.0000000000000000e+00 1.0079368399158984e+01
0.0000000000000000e+00 5.0396841995794919e+00
0.0000000000000000e+00 5.0396841995794919e+00
ITEM: ATOMS id type xs ys zs
68 1 0.0468326 0.151222 0.178614
67 1 0.141259 0.107165 0.0746474
70 1 0.120088 0.063263 0.283692
82 1 0.0964524 0.293697 0.0619822
83 1 0.203888 0.216077 0.169181
132 1 0.265054 0.16306 0.0146707
149 1 0.337174 0.208145 0.2152
145 1 0.359924 0.278254 0.0373396
147 1 0.451363 0.207944 -0.00262192
134 1 0.422961 0.0536899 0.188193
150 1 0.433835 0.317697 0.169837
213 1 0.508489 0.130954 0.171562
197 1 0.615615 0.0806653 0.167951
211 1 0.620822 0.296599 0.116715
216 1 0.537707 0.310491 0.270295
17 1 0.7186 0.159223 0.109541
21 1 0.753894 0.148776 0.303804
20 1 0.792042 0.311721 0.15095
1 1 0.777598 0.0161192 0.0118898
214 1 0.706686 0.326157 0.279102
210 1 0.709922 0.333809 0.0133954
4 1 0.817243 0.122312 0.159342
6 1 0.946163 0.221271 0.224434
8 1 0.845233 0.267752 0.313388
65 1 0.946609 0.0482696 0.0346016
7 1 0.889361 0.0797072 0.289026
69 1 0.975415 1.00205 0.22698
84 1 0.103304 0.334834 0.321301
100 1 0.0815803 0.503152 0.193677
98 1 0.124612 0.626902 0.06015
99 1 0.176945 0.43364 0.137932
85 1 0.000309219 0.360424 0.308559
97 1 0.0383346 0.459357 0.99745
102 1 0.17692 0.683251 0.30674
148 1 0.264911 0.349495 0.239859
161 1 0.263323 0.353305 0.0264005
165 1 0.248176 0.606595 0.172695
166 1 0.35775 0.668146 0.25367
163 1 0.340622 0.485481 0.161546
146 1 0.420853 0.466086 -0.00114797
162 1 0.408428 0.628158 0.0884734
229 1 0.426497 0.503813 0.266799
240 1 0.494244 0.583341 0.969715
225 1 0.520117 0.499448 0.171321
212 1 0.530678 0.343735 0.0183808
227 1 0.606103 0.546795 0.0818631
231 1 0.617992 0.449555 0.249521
37 1 0.715941 0.481547 0.160392
40 1 0.732337 0.577869 0.32103
49 1 0.777131 0.654957 0.0548033
36 1 0.819732 0.494815 0.1698
101 1 0.978506 0.595444 0.30003
19 1 0.892145 0.287606 0.0789594
35 1 0.961284 0.447494 0.141183
38 1 0.894052 0.655453 0.179684
22 1 0.899192 0.444539 0.301021
34 1 0.881206 0.51976 0.00825603
113 1 0.958766 0.63342 0.00171177
116 1 0.0417423 0.93589 0.101843
115 1 0.119295 0.803042 0.164216
117 1 0.0199823 0.705197 0.146209
120 1 0.0606064 0.911149 0.307895
118 1 0.182464 0.933579 0.235101
133 1 0.28798 0.0200906 0.228527
164 1 0.202859 0.772548 0.0283187
177 1 0.306598 0.710653 0.0447541
180 1 0.2264 0.971036 0.0615505
181 1 0.260701 0.810824 0.214311
131 1 0.343507 0.0280297 0.0408049
228 1 0.467956 0.709483 0.234212
179 1 0.446366 0.813589 0.0593202
182 1 0.356976 0.880913 0.19487
241 1 0.556226 0.725008 0.05911
232 1 0.561785 0.698325 0.26086
244 1 0.541189 0.980999 0.0389837
245 1 0.522765 0.878722 0.207042
246 1 0.628906 0.868507 0.186928
242 1 0.696609 0.856545 0.0195354
195 1 0.716753 0.975477 0.204232
230 1 0.66615 0.655017 0.194304
52 1 0.779807 0.845312 0.113748
5 1 0.800635 0.959422 0.308961
63 1 0.871576 0.741252 0.969293
3 1 0.879222 0.89085 0.204687
50 1 0.943475 0.826592 0.0549007
51 1 0.80279 0.72444 0.248371
54 1 0.959091 0.798271 0.260049
72 1 0.0357143 0.187191 0.409919
89 1 0.0493067 0.0336407 0.651499
74 1 0.108648 0.0397141 0.472876
91 1 0.135731 0.196883 0.608133
92 1 0.997811 0.270579 0.650601
87 1 0.182729 0.244894 0.40667
136 1 0.277333 0.157461 0.373696
140 1 0.232833 0.170359 0.5528
71 1 0.210622 0.0199072 0.41381
137 1 0.308073 0.00515926 0.539674
75 1 0.161822 0.993229 0.629633
152 1 0.375829 0.346639 0.337918
153 1 0.371634 0.344576 0.528961
138 1 0.380951 0.149792 0.533954
151 1 0.457784 0.189736 0.358911
135 1 0.374448 0.0616647 0.347041
198 1 0.62214 0.218667 0.323379
200 1 0.5691 0.0451818 0.349093
217 1 0.541779 0.222204 0.460332
202 1 0.629601 0.0872961 0.539082
199 1 0.663115 0.957536 0.393135
219 1 0.62174 0.28144 0.610259
204 1 0.512983 0.139988 0.638082
25 1 0.713149 0.181263 0.45535
203 1 0.740859 0.0889129 0.650112
12 1 0.83381 0.141756 0.652235
23 1 0.932076 0.196124 0.499488
10 1 0.821338 0.13754 0.455227
27 1 0.959148 0.0878204 0.638713
58 1 0.00193012 0.979023 0.465593
88 1 0.0639287 0.373116 0.551734
103 1 0.109146 0.52171 0.417032
106 1 0.0983101 0.602049 0.593004
107 1 0.200888 0.608654 0.487165
86 1 0.200142 0.495497 0.312069
90 1 0.174434 0.399696 0.513456
156 1 0.27533 0.500306 0.595414
168 1 0.267071 0.698862 0.384528
169 1 0.268115 0.367848 0.443752
167 1 0.34167 0.522347 0.41957
154 1 0.478084 0.395664 0.422286
155 1 0.472543 0.34001 0.606452
171 1 0.431139 0.53977 0.508429
158 1 0.361802 0.506482 0.735413
233 1 0.53156 0.552056 0.389082
215 1 0.592736 0.377559 0.449826
220 1 0.524547 0.520542 0.594978
222 1 0.63042 0.521844 0.595991
234 1 0.621616 0.584146 0.399209
28 1 0.731551 0.316978 0.604094
24 1 0.77464 0.399011 0.402566
218 1 0.709487 0.505166 0.500373
41 1 0.774478 0.670093 0.485801
30 1 0.841299 0.338403 0.569081
105 1 0.00370365 0.591798 0.511103
26 1 0.962439 0.405459 0.493552
39 1 0.830629 0.550004 0.361686
43 1 0.897965 0.543421 0.541086
104 1 0.0702563 0.714429 0.337713
73 1 0.0786024 0.847659 0.518314
122 1 0.155881 0.759151 0.631315
119 1 0.152917 0.844302 0.402812
185 1 0.236179 0.852265 0.550458
184 1 0.336972 0.82482 0.418619
183 1 0.442306 0.906596 0.317852
201 1 0.476104 0.0405293 0.482816
236 1 0.478945 0.710007 0.604267
172 1 0.356756 0.66273 0.590099
170 1 0.429993 0.726275 0.419721
186 1 0.409632 0.888137 0.555699
249 1 0.514171 0.815539 0.410372
235 1 0.572633 0.719392 0.538631
248 1 0.575351 0.912821 0.551647
247 1 0.627423 0.782593 0.386711
252 1 0.519933 0.858647 0.703134
9 1 0.750786 0.989485 0.481232
53 1 0.714493 0.776526 0.321138
250 1 0.674529 0.908085 0.603735
57 1 0.685896 0.702229 0.569248
42 1 0.824221 0.836691 0.486928
55 1 0.894257 0.715365 0.376847
121 1 0.974913 0.777634 0.461987
59 1 0.908912 0.736652 0.592107
56 1 0.902178 0.934709 0.421867
60 1 0.86788 0.947687 0.637187
11 1 0.964969 0.894402 0.67966
80 1 0.0462834 0.0962284 0.986986
95 1 0.108153 0.145775 0.792959
93 1 0.01298 0.133998 0.806006
96 1 0.0459331 0.319655 0.851388
66 1 0.185058 0.0592726 0.895635
78 1 0.225789 0.146367 0.733922
144 1 0.296545 0.253446 0.855211
157 1 0.292568 0.298899 0.638055
160 1 0.200219 0.271788 0.889153
129 1 0.285951 0.0213831 0.876467
141 1 0.329733 0.113935 0.715032
142 1 0.406446 0.22678 0.721381
130 1 0.377456 0.128323 0.889785
208 1 0.501622 0.232646 0.817575
139 1 0.433266 0.994205 0.714705
178 1 0.454575 0.0176707 0.971153
196 1 0.554806 0.169523 0.984839
193 1 0.658724 0.0767567 0.975798
206 1 0.586082 0.178673 0.767343
143 1 0.525751 0.0138824 0.832036
209 1 0.625561 0.296829 0.913223
205 1 0.621656 0.985329 0.737138
32 1 0.774478 0.20555 0.948475
194 1 0.689649 0.209941 0.774393
29 1 0.804542 0.280922 0.76564
16 1 0.801674 0.0286321 0.791123
81 1 0.97118 0.225039 0.979415
2 1 0.874643 0.142041 0.963905
31 1 0.918068 0.179323 0.787114
14 1 0.916219 0.987691 0.835604
110 1 0.0842214 0.441907 0.730313
112 1 0.0537355 0.595837 0.85815
111 1 0.141048 0.477626 0.907631
94 1 0.168076 0.349252 0.719682
127 1 0.182894 0.560183 0.709055
173 1 0.264738 0.465164 0.793205
176 1 0.232592 0.569836 0.965817
189 1 0.329993 0.671671 0.815111
159 1 0.373437 0.357259 0.854653
174 1 0.466433 0.606547 0.755956
175 1 0.326249 0.520343 0.947572
224 1 0.469137 0.4229 0.823218
221 1 0.549258 0.376738 0.712429
237 1 0.579746 0.601449 0.729653
223 1 0.65134 0.465872 0.781754
239 1 0.569517 0.496681 0.89006
33 1 0.792089 0.412434 0.993326
226 1 0.712864 0.522891 0.960896
238 1 0.727526 0.548016 0.680347
45 1 0.732447 0.392797 0.820381
48 1 0.797382 0.618785 0.85862
44 1 0.824896 0.479636 0.718888
109 1 0.916594 0.379178 0.719443
108 1 0.99211 0.555922 0.696054
18 1 0.960448 0.481948 0.86577
46 1 0.900834 0.616693 0.786373
47 1 0.873558 0.341163 0.885913
76 1 0.110558 0.910002 0.793296
124 1 0.0570686 0.746975 0.717737
128 1 0.0693173 0.75885 0.968298
79 1 0.138089 0.926365 0.986626
77 1 0.0118006 0.944149 0.895245
114 1 0.155819 0.715254 0.853987
123 1 0.260082 0.677858 0.67075
126 1 0.213629 0.878397 0.766828
188 1 0.320928 0.865316 0.687436
192 1 0.268701 0.811129 0.888717
187 1 0.406298 0.775518 0.727071
190 1 0.377507 0.908185 0.878061
191 1 0.413888 0.684185 0.910084
256 1 0.477207 0.841244 0.876709
251 1 0.620294 0.777975 0.734269
243 1 0.642213 0.70174 0.943295
253 1 0.552282 0.716949 0.867751
255 1 0.609844 0.907572 0.914686
207 1 0.703466 0.953948 0.838276
254 1 0.714015 0.753304 0.777381
13 1 0.769987 0.891474 0.646542
61 1 0.803277 0.69268 0.670783
64 1 0.792826 0.838306 0.908043
125 1 0.98096 0.756459 0.847671
15 1 0.868245 0.947101 0.0200034
62 1 0.869491 0.814537 0.76328
ITEM: TIMESTEP
15000
ITEM: NUMBER OF ATOMS
256
ITEM: BOX BOUNDS pp pp pp
0.0000000000000000e+00 1.0079368399158984e+01
0.0000000000000000e+00 5.0396841995794919e+00
0.0000000000000000e+00 5.0396841995794919e+00
ITEM: ATOMS id type xs ys zs
68 1 0.100917 0.22247 0.243723
70 1 0.0679445 0.0316075 0.284888
82 1 0.0331137 0.219247 0.0414226
67 1 0.134362 0.0847264 0.0999646
160 1 0.152767 0.290383 0.0499532
83 1 0.197632 0.1106 0.276248
132 1 0.247025 0.21298 0.149981
133 1 0.287624 0.989401 0.228685
149 1 0.342445 0.200423 0.244347
134 1 0.425621 0.0570438 0.200689
131 1 0.335812 0.097514 0.0715683
147 1 0.437161 0.221288 0.0469846
150 1 0.435712 0.345206 0.219152
213 1 0.498782 0.189153 0.250856
197 1 0.607192 0.0735468 0.151257
211 1 0.583305 0.257437 0.113237
196 1 0.512177 0.0845593 0.100852
198 1 0.630538 0.211378 0.29252
17 1 0.680718 0.216434 0.0984409
21 1 0.739364 0.195019 0.284817
4 1 0.802213 0.13547 0.118329
195 1 0.706424 0.0235134 0.161185
5 1 0.818668 0.975779 0.257855
6 1 0.971128 0.35318 0.154914
8 1 0.898195 0.210782 0.201881
65 1 0.955695 0.0434345 0.989112
7 1 0.888876 0.0422616 0.132528
69 1 0.9758 0.966384 0.198998
19 1 0.838515 0.325793 0.0773003
84 1 0.154422 0.388926 0.232237
100 1 0.0819177 0.556398 0.271691
97 1 0.0715661 0.437507 0.10461
85 1 0.0337949 0.385875 0.316284
99 1 0.155354 0.548553 0.108807
117 1 -0.000469719 0.665094 0.092079
148 1 0.295292 0.380175 0.232512
161 1 0.23816 0.402275 0.0763875
165 1 0.268638 0.567363 0.170449
102 1 0.185289 0.579223 0.292273
145 1 0.353988 0.302609 0.0897904
163 1 0.385458 0.50803 0.212878
225 1 0.482834 0.557178 0.162298
212 1 0.510524 0.375446 0.0664227
216 1 0.528969 0.376343 0.306922
231 1 0.588873 0.550333 0.229381
214 1 0.643043 0.379378 0.207396
227 1 0.595171 0.460451 0.0138707
20 1 0.727777 0.418264 0.123739
37 1 0.656268 0.59731 0.0980794
40 1 0.705405 0.525011 0.275077
49 1 0.755889 0.623499 0.0581539
36 1 0.812239 0.528396 0.220428
24 1 0.817548 0.317876 0.266461
101 1 0.98245 0.578425 0.290426
35 1 0.913147 0.529039 0.135889
55 1 0.883954 0.674351 0.331567
116 1 0.0640883 0.904615 0.13149
115 1 0.105541 0.72671 0.207065
79 1 0.133182 0.90896 0.973251
118 1 0.157432 0.9326 0.262741
54 1 0.016871 0.783724 0.274235
164 1 0.189211 0.772386 0.0809817
177 1 0.300547 0.744051 0.0648411
180 1 0.212893 0.970493 0.0725783
181 1 0.253478 0.809401 0.239179
162 1 0.427447 0.715776 0.141672
166 1 0.36023 0.675238 0.282089
228 1 0.4718 0.681028 0.338323
179 1 0.463747 0.904941 0.0710173
182 1 0.368861 0.876095 0.165799
183 1 0.440867 0.875994 0.300895
241 1 0.561693 0.740225 0.106545
232 1 0.57417 0.732344 0.301304
244 1 0.625748 0.903794 0.0241385
245 1 0.548844 0.954815 0.230527
246 1 0.641763 0.888342 0.232734
230 1 0.675933 0.706593 0.276572
242 1 0.716656 0.805756 0.0822222
52 1 0.809474 0.900956 0.0700767
51 1 0.786273 0.714069 0.246256
38 1 0.85406 0.677852 0.0686491
3 1 0.893963 0.839033 0.159022
50 1 0.966994 0.850872 0.0150748
72 1 0.0466974 0.150106 0.478345
58 1 0.985537 0.993663 0.419399
88 1 0.106597 0.317898 0.515987
92 1 0.021689 0.26328 0.65024
74 1 0.159192 0.0856272 0.446412
87 1 0.194549 0.278577 0.404301
136 1 0.289981 0.162897 0.409084
140 1 0.223313 0.185679 0.579617
137 1 0.291435 0.996212 0.544647
138 1 0.367552 0.14898 0.532458
151 1 0.448665 0.255742 0.426329
135 1 0.381299 0.0432386 0.366536
155 1 0.478229 0.281289 0.623218
204 1 0.458199 0.0996138 0.600286
201 1 0.474731 0.0441548 0.390464
200 1 0.576887 0.0496137 0.404227
217 1 0.575226 0.246557 0.454547
202 1 0.641801 0.109688 0.554527
219 1 0.645547 0.313374 0.644697
206 1 0.555187 0.158851 0.652279
25 1 0.690869 0.282562 0.459153
203 1 0.741679 0.0917189 0.646623
28 1 0.775597 0.303008 0.619846
199 1 0.685818 0.0352624 0.363943
9 1 0.776904 0.0207634 0.465813
10 1 0.882965 0.0757598 0.354419
12 1 0.829779 0.133451 0.56595
23 1 0.993606 0.165829 0.265329
27 1 0.938671 0.13008 0.542133
30 1 0.856801 0.257589 0.425524
26 1 0.977142 0.342103 0.461525
103 1 0.141656 0.516301 0.448381
106 1 0.090189 0.581679 0.67781
105 1 0.0423363 0.486576 0.481381
104 1 0.0774634 0.660441 0.446423
124 1 0.986016 0.624969 0.610004
86 1 0.250947 0.458974 0.401829
107 1 0.215509 0.611839 0.556754
90 1 0.196071 0.411524 0.606994
169 1 0.291706 0.328824 0.520343
229 1 0.439343 0.494346 0.373866
152 1 0.36302 0.35148 0.354716
172 1 0.341342 0.635481 0.654039
167 1 0.339676 0.53611 0.47948
153 1 0.385932 0.435753 0.63176
171 1 0.451966 0.561118 0.578959
154 1 0.534296 0.405506 0.51338
233 1 0.542498 0.590375 0.468403
215 1 0.632416 0.441895 0.41978
220 1 0.544339 0.477957 0.684348
222 1 0.637107 0.530665 0.598817
234 1 0.641197 0.639501 0.444642
218 1 0.726331 0.453072 0.495012
41 1 0.750915 0.639899 0.40993
238 1 0.734277 0.552087 0.668533
44 1 0.817265 0.479763 0.644752
39 1 0.829108 0.498279 0.422318
22 1 0.909632 0.434157 0.340412
43 1 0.91262 0.56544 0.492289
109 1 0.893655 0.36496 0.569942
120 1 0.0887125 0.853659 0.391035
73 1 0.103258 0.959041 0.566528
122 1 0.14762 0.744914 0.579724
119 1 0.181772 0.74713 0.372648
121 1 0.989388 0.768578 0.47945
168 1 0.287581 0.678055 0.395814
71 1 0.236628 0.900327 0.405218
75 1 0.211865 0.895227 0.615607
185 1 0.295085 0.787683 0.568872
184 1 0.330975 0.871413 0.364357
236 1 0.473051 0.769771 0.58379
170 1 0.388289 0.728837 0.488207
186 1 0.377887 0.922748 0.560447
249 1 0.522189 0.855444 0.429636
235 1 0.587009 0.754005 0.575466
248 1 0.568533 0.943987 0.582395
247 1 0.641407 0.84652 0.433768
61 1 0.815033 0.661496 0.572852
53 1 0.734421 0.863365 0.355918
250 1 0.705611 0.942624 0.541066
57 1 0.713149 0.733677 0.562003
13 1 0.797844 0.877624 0.598842
42 1 0.834436 0.827184 0.398415
59 1 0.905301 0.760949 0.585826
56 1 0.929379 0.849432 0.342961
60 1 0.885209 0.948646 0.501973
11 1 0.963043 0.923864 0.608531
91 1 0.134449 0.115948 0.70256
89 1 0.037352 0.0558623 0.665368
80 1 0.0598992 0.0505987 0.955988
95 1 0.105616 0.218578 0.869835
157 1 0.295247 0.281518 0.743227
66 1 0.184819 0.114131 0.914111
144 1 0.270724 0.221775 0.962221
141 1 0.291117 0.0994165 0.74324
94 1 0.201676 0.315162 0.808046
129 1 0.280153 0.0202362 0.919274
142 1 0.39513 0.235571 0.709762
130 1 0.363509 0.172064 0.878879
208 1 0.482581 0.081879 0.796195
178 1 0.428631 0.0418817 0.955175
139 1 0.379707 0.0173034 0.769659
193 1 0.642563 0.0955374 0.954698
209 1 0.55811 0.150877 0.946534
205 1 0.600357 0.0112456 0.77415
210 1 0.663201 0.333804 0.951026
221 1 0.560475 0.302432 0.794373
194 1 0.680926 0.173658 0.780403
1 1 0.744476 0.055813 0.967621
32 1 0.762337 0.256072 0.960531
29 1 0.795569 0.149806 0.798842
93 1 0.0105423 0.182825 0.826438
81 1 0.938476 0.252213 0.953756
2 1 0.851277 0.100733 0.935458
31 1 0.913491 0.215923 0.738124
14 1 0.885046 0.0137035 0.717637
108 1 0.012036 0.441879 0.698871
98 1 0.0979354 0.669916 0.00592183
96 1 0.0442693 0.3685 0.915987
110 1 0.113005 0.386626 0.726146
112 1 0.0437448 0.616241 0.836875
111 1 0.148329 0.444527 0.918594
156 1 0.281418 0.460731 0.68183
127 1 0.188012 0.555741 0.745828
173 1 0.266366 0.456311 0.879664
176 1 0.218615 0.616483 0.955005
175 1 0.340513 0.533143 0.034707