LAMMPS (18 Jun 2019)
LAMMPS (18 Jun 2019)
Total wall time: 0:00:00
LAMMPS (18 Jun 2019)
Total wall time: 0:00:00
LAMMPS (18 Jun 2019)
Total wall time: 0:00:00
LAMMPS (18 Jun 2019)
Total wall time: 0:00:00
LAMMPS (18 Jun 2019)
Total wall time: 0:00:00
Reading data file ...
  orthogonal box = (0 0 0) to (20.5197 10.2599 10.2599)
  1 by 1 by 1 MPI processor grid
  reading atoms ...
  864 atoms
  reading velocities ...
  864 velocities
  read_data CPU = 0.00526309 secs
Neighbor list info ...
  update every 1 steps, delay 10 steps, check yes
  max neighbors/atom: 2000, page size: 100000
  master list distance cutoff = 3.3
  ghost atom cutoff = 3.3
  binsize = 1.65, bins = 13 7 7
  1 neighbor lists, perpetual/occasional/extra = 1 0 0
  (1) pair lj/cut, perpetual
      attributes: half, newton on
      pair build: half/bin/atomonly/newton
      stencil: half/bin/3d/newton
      bin: standard
Setting up Verlet run ...
  Unit style    : lj
  Current step  : 0
  Time step     : 0.001
Per MPI rank memory allocation (min/avg/max) = 2.8 | 2.8 | 2.8 Mbytes
Time Temp Press 
           0    0.3379911    -2.869697 
LAMMPS (18 Jun 2019)
LAMMPS (18 Jun 2019)
Total wall time: 0:00:00
Total wall time: 0:00:00
           1   0.94652846   0.60762528 
           2    1.0300268  0.033032862 
           3    1.0106033 -0.069567418 
           4    1.0340603 -0.059459975 
           5    1.0314437  0.016173807 
           6    1.0326041  -0.18027485 
           7   0.97552301  0.052826948 
           8    1.0102391  -0.04031224 
           9    1.0043402  0.087784163 
          10    1.0160026 -0.015644067 
          11    1.0124042 -0.0047125895 
          12   0.99191627 -0.0030576544 
          13    1.0139093 -0.0048673284 
          14    1.0189236 -0.098682171 
          15   0.97940764  0.073183963 
          16   0.98717154   0.08560154 
          17   0.97549283 -0.036144361 
          18   0.95590165  0.005762246 
          19   0.95191108 -0.066807501 
          20    1.0498312  0.093590302 
          21    1.0573643   0.05902296 
          22    1.0226254 -0.042418417 
          23    1.0025299 -0.0019377115 
          24   0.97997357 -0.016359781 
          25   0.99947028   0.04852201 
          26    1.0185152  0.052069873 
          27    1.0204726  0.086095914 
          28    1.0958343   0.02826081 
          29   0.99789561  0.012527434 
          30   0.96448202  0.063738803 
          31   0.98909047  0.031291147 
          32   0.95618772 -0.018569211 
          33   0.98216423   0.05142714 
          34    1.0133274  0.087589103 
          35    1.0246297 -0.038283842 
          36   0.98939283  0.058061776 
          37    1.0062026  0.036090543 
          38    1.0249234  0.052370939 
          39    1.0335535  0.011934544 
          40   0.97814663   0.10686911 
          41   0.99139098  -0.14036009 
          42     1.022586 -0.0011709675 
          43    1.0127068  0.053804055 
          44    1.0264369  0.043815803 
          45   0.97420022 -0.038002956 
          46    1.0217159  0.053773796 
          47    1.0120154   0.19200709 
          48    1.0235673 0.0030547164 
          49    1.0182928   0.16678004 
          50    1.0481349  0.046169854 
          51    1.0005315  0.022553931 
          52    1.0105038  0.018527677 
          53   0.97361895   0.10401556 
          54   0.96715511   0.10345238 
          55    1.0043555  0.076971578 
          56   0.99422582 -0.0049747774 
          57    1.0277835  0.015040198 
          58   0.94244391 0.0017856755 
          59   0.99142052 -0.083880378 
          60    1.0255044  0.083179599 
          61    1.0109961  0.032101049 
          62   0.99429965  -0.05200397 
          63    1.0327411  0.031784421 
          64   0.98213187   0.04211453 
          65   0.99255544   0.07170757 
          66    1.0092801   0.15056942 
          67    1.0051175   0.15253479 
          68    1.0004198 -0.0066436849 
          69    1.0297978  0.087644268 
          70   0.98903081   0.11187794 
          71    1.0027463   0.12399001 
          72    1.0163873 -0.048379891 
          73   0.96301599  0.086543095 
          74   0.97790522   0.14881073 
          75   0.99500977  0.023073604 
          76   0.99365968    0.1254752 
          77   0.99685828  0.019167994 
          78    1.0136332 -0.059271811 
          79   0.95757803 -0.018842847 
          80   0.94731813 -0.044198849 
          81   0.98949136 -0.029909822 
          82    1.0305951  0.017392215 
          83    1.0027696   0.08340185 
          84    1.0307833 -0.067571998 
          85    0.9563247 -0.068156062 
          86    1.0086899 -0.008644731 
          87    0.9868078 -0.028879909 
          88    1.0308832 -0.019912779 
          89   0.98895108  0.033299341 
          90    1.0077357  0.045126138 
          91    0.9726775   0.11644006 
          92   0.97588839  0.079917812 
          93    1.0109121 -0.084272888 
          94   0.96727543  -0.10671761 
          95   0.97592452 -0.010794019 
          96    1.0091056  0.047888537 
          97     1.024834  0.060120371 
          98   0.99778599  0.035120353 
          99    1.0221058   -0.0224322 
         100    1.0323202  0.083091635 
         101    1.0463845  0.047155752 
         102     1.036604   0.16078504 
         103    1.0485599 -0.010057447 
         104   0.96095121  0.044830484 
         105    1.0321923  0.012479306 
         106    1.0265498  0.026999282 
         107    1.0694211  0.069160305 
         108   0.98253692  0.015295074 
         109     1.006672 0.0056498689 
         110    1.0562684  0.091762828 
         111    1.0181496  0.079699479 
         112   0.93325571   0.13899054 
         113   0.96200014   0.23442805 
         114   0.97304611   0.11556323 
         115   0.99209309  0.030430443 
         116    1.0316269  0.018882081 
         117   0.96980275  0.016507015 
         118    1.0131386  0.072154363 
         119   0.96380626   0.16630045 
         120    1.0313448  0.046246789 
         121   0.99648011 -0.017919208 
         122    1.0049835  0.021278749 
         123   0.98998052 -0.054937618 
         124    1.0442553    0.1318637 
         125    1.0245795  0.048912758 
         126    1.0318824  0.045051707 
         127    1.0175696   0.13275447 
         128    1.0302755 -0.066105063 
         129    1.0281207 -0.0073922448 
         130    1.0234351 0.00052516121 
         131    1.0020915  0.031532426 
         132     1.085312  0.027196406 
         133   0.96771477  0.098867396 
         134   0.96276341 -0.061416941 
         135   0.99824687  0.004115364 
         136    1.0099227  0.051332312 
         137    1.0404106   0.09721915 
         138    1.0108232 -0.044808309 
         139   0.94176322  0.038222861 
         140    1.0173897 -0.076042653 
         141   0.98412149  0.026296326 
         142    1.0013694   0.10463953 
         143   0.97656282  0.018922863 
         144   0.99158638   0.28081385 
         145   0.99664383  0.001590864 
         146    1.0008457 -0.019351607 
         147    1.0151994 -0.022209495 
         148   0.98251696 -0.0055545025 
         149   0.98168362 -0.012891341 
         150    1.0022666 -0.093201652 
         151   0.96454843 -0.00021729509 
         152   0.99100831 -0.076699519 
         153     1.009674  0.077791254 
         154   0.99762905  0.062712942 
         155    1.0629518  0.022584203 
         156    1.0135238   0.16462249 
         157    0.9385591 -0.010186352 
         158    1.0157464  -0.04634884 
         159   0.99266936  -0.03594634 
         160    1.0430607  0.066839608 
         161   0.99634181   0.11999903 
         162    1.0212092 -0.0046883004 
         163     1.023188 -0.041654514 
         164    1.0135647 -0.070724913 
         165   0.99298968 -0.021522267 
         166   0.95908748 -0.020967724 
         167    1.0036156   0.11200732 
         168   0.96425754 -0.035130776 
         169    1.0327729 -0.012453552 
         170    1.0198321   0.10230055 
         171    1.0300786  0.038846019 
         172   0.99086358 -0.036435861 
         173   0.97927509  0.054836127 
         174   0.98834856  0.017795474 
         175   0.98344552 -0.028280042 
         176    0.9821487 -0.057557245 
         177   0.98526074  0.047584679 
         178    0.9991924 -0.022917001 
         179    1.0035468  0.083861982 
         180   0.94217987  0.057063578 
         181    1.0059294  0.023537924 
         182   0.96552221 0.0080310865 
         183    1.0740914   0.13902903 
         184   0.98636383  0.095362733 
         185   0.98852497  0.072547038 
         186    1.0148823  0.055896433 
         187    1.0783124   0.12061284 
         188    1.0279008  -0.13282949 
         189    1.0146641    0.0833386 
         190    1.0186056  0.052158648 
         191   0.97975948  0.079860586 
         192    1.0539566   0.16680424 
         193    1.0377164   0.20746065 
         194   0.99242009 -0.053004265 
         195    1.0280765 -0.019742468 
         196   0.96022918   0.11630123 
         197    1.0211034  0.043122153 
         198    0.9859362  0.054762737 
         199   0.97886327 -0.065823107 
         200    1.0141111  0.018887883 
         201    1.0083365   0.12217412 
         202   0.94287977  0.054411233 
         203   0.97718736 -0.0050693181 
         204    1.0119225  0.049569247 
         205    1.0174428  0.029350783 
         206   0.98580759 -0.0093620244 
         207   0.99164541    0.1199953 
         208   0.99111124  0.056886747 
         209    1.0111382  0.041741405 
         210   0.98246353   0.03437309 
         211   0.93385249   0.01602822 
         212   0.99744212 -0.0009419299 
         213    1.0208337  0.036661412 
         214    1.0136266   0.14104571 
         215    1.0032851  0.064729107 
         216   0.98130314 -0.058997216 
         217   0.98418387  0.050513799 
         218   0.94551412 -0.029210704 
         219    0.9702789  0.054821932 
         220    1.0303894  0.014763968 
         221    1.0100768  0.050186179 
         222   0.99920812 0.0018534451 
         223    1.0144474  0.029755423 
         224   0.98083024   0.10350264 
         225     1.032883   0.02933237 
         226   0.98832667  0.047288533 
         227    1.0116956  0.040848568 
         228   0.98117726  0.054687627 
         229    1.0104326 -0.0089820337 
         230   0.98762514 0.0055798007 
         231    1.0044658   0.20531151 
         232     1.009716 -0.026396028 
         233   0.95127861 -0.010091662 
         234    1.0152723 -0.0011103571 
         235    1.0812691 -0.053225021 
         236    1.0003698 -0.065304189 
         237    1.0298119   0.20061788 
         238    1.0192239   0.13311384 
         239    0.9674188  0.020882908 
         240    1.0345346  0.024083264 
         241    1.0007228 -0.024742417 
         242    1.0257636 -0.033436226 
         243   0.98204256  0.018530996 
         244     1.038128   0.10303918 
         245   0.98948253   0.10192157 
         246   0.97711367 -0.032429648 
         247    0.9967918   0.13585992 
         248   0.97185396  0.024127204 
         249    1.0069871 -0.027578267 
         250   0.95386438 -0.0020494541 
         251    1.0112857 -0.0018892755 
         252   0.95239184 -0.043553743 
         253   0.99026082 -0.0079620694 
         254    0.9792838  0.083198897 
         255    1.0430805  0.073518652 
         256    1.0239113  0.077361705 
         257   0.98761597 -0.0086949371 
         258    1.0154117 -0.034926926 
         259   0.97559007  0.030012197 
         260    1.0128934  0.079330822 
         261     1.015494  -0.02376389 
         262   0.96951338  0.062937751 
         263   0.99112575  -0.05319887 
         264    1.0059909  0.018024861 
         265   0.99940792 -0.023905091 
         266    1.0124118 -0.023114115 
         267    1.0573107   0.11593235 
         268    0.9473488 -0.045586603 
         269   0.99540024 -0.010847114 
         270   0.95214398  -0.10289779 
         271   0.99142508 -0.040576228 
         272   0.95138543 -0.016618753 
         273    1.0062736   0.10465089 
         274    1.0004881  0.063146243 
         275    1.0080989  0.078033658 
         276    1.0369074  0.032623506 
         277   0.98481857   0.12354875 
         278   0.98221633 -0.090751601 
         279   0.94947044  -0.11073701 
         280   0.98899771 -0.046904886 
         281   0.97249494    0.1133543 
         282   0.97965118   0.10464177 
         283    1.0391265   0.17312512 
         284   0.95479235   0.10242614 
         285   0.94857146  0.048795196 
         286    1.0146785 -0.017839495 
         287    0.9926941  0.087648672 
         288   0.95799971 -0.025655076 
         289   0.97202776   0.11697932 
         290   0.96318824 -0.020593351 
         291    1.0052174  0.014650914 
         292     1.013526 -0.0047513843 
         293   0.96765941  0.078355263 
         294    1.0037962  -0.10290476 
         295   0.94217249 0.0031831953 
         296   0.96199389 -0.067179785 
         297    1.0052776 -0.085335512 
         298    1.0447182   0.08174151 
         299   0.99993405    0.1614631 
         300    1.0454702  0.039101044 
         301    1.0088087  0.027896203 
         302   0.95657499  0.014888635 
         303    1.0125919 0.0048579612 
         304    1.0255324   0.14336198 
         305   0.97202652   0.15566602 
         306    1.0097737  0.042707594 
         307    1.0150844  0.076048204 
         308    1.0063902  0.046721564 
         309    1.0213405 -0.029698268 
         310   0.98904602  0.082097542 
         311    1.0014481  0.017152944 
         312    1.0278201  0.017938833 
         313    0.9687692   0.10720975 
         314   0.98348438  0.073484631 
         315   0.98493634  0.091785101 
         316    1.0002657   0.04260192 
         317    1.0056009   0.12455069 
         318     1.035542  0.038563801 
         319   0.98104161 -0.084979537 
         320   0.91704582 -0.020381296 
         321     1.018805 -0.0055951032 
         322   0.99767783   0.10398436 
         323   0.99339004  0.012467793 
         324    1.0220962   0.19645003 
         325    1.0463659    0.0659672 
         326    0.9811059  -0.10818351 
         327   0.98999602  0.025621235 
         328    1.0053545  0.026126314 
         329   0.96869922  0.086930881 
         330   0.99811476 -0.023559174 
         331   0.98422986 -0.089473712 
         332   0.94857874 -0.0017472921 
         333    1.0187774  0.080484853 
         334    0.9786118   0.02428235 
         335   0.95943509   0.13512189 
         336   0.97652224 -0.0092580695 
         337    1.0129562 -0.098999106 
         338    1.0008256 -0.024124993 
         339    1.0366218 -0.039393578 
         340    1.0101155 -0.047424873 
         341    1.0398975  0.097356193 
         342   0.98981835  0.077799253 
         343    1.0058233  0.061089585 
         344    1.0440315  0.024889729 
         345    1.0335678  0.076430572 
         346   0.97805001 -0.037556131 
         347    0.9759576  0.045505153 
         348   0.95522686 -0.078968203 
         349    1.0076044 -0.061274038 
         350    1.0342567   0.10025604 
         351   0.96630537 -0.028635631 
         352    1.0326267   0.12735486 
         353   0.95774389  0.094958669 
         354   0.98770198  0.090852374 
         355   0.96219705 -0.079030166 
         356    1.0075226   0.02273751 
         357     1.030077 0.0073433447 
         358    1.0022067 -0.002687222 
         359   0.96867352  0.032291763 
         360    1.0406527 0.0019584215 
         361    1.0207898  0.082990703 
         362    1.0001004  0.089093178 
         363   0.94581539  0.051108301 
         364   0.98474859 -0.006028936 
         365   0.95486832  0.060839367 
         366   0.97751809  0.070625567 
         367   0.99581948  0.021796722 
         368   0.94300963 -0.098463695 
         369    1.0358121  0.093474757 
         370   0.95439971 0.0020137578 
         371    1.0192494  -0.12361476 
         372   0.99212766 -0.027677189 
         373    1.0508106   0.10994815 
         374    1.0222819  0.098325519 
         375    0.9640109   0.01108124 
         376    1.0021605  0.098859576 
         377    1.0361119   0.10810699 
         378   0.96433334 -0.017957949 
         379   0.99856833 -0.069793391 
         380   0.97519253  0.063604409 
         381   0.97179907  0.029917449 
         382    1.0023553    0.1478359 
         383    1.0059849 -0.093583745 
         384    1.0136522  0.019834744 
         385   0.99370604   0.11513139 
         386   0.91614662 -0.0060692884 
         387    1.0314672  0.092088661 
         388    1.0175477 -0.024291305 
         389   0.99682269   0.02348463 
         390    1.0168828  0.046280666 
         391    0.9720186 -0.018573873 
         392   0.98197948  0.064830724 
         393   0.97371369 -0.00073357729 
         394   0.99776566 0.0089160974 
         395   0.97118583 -0.074216018 
         396    1.0532684   0.17638419 
         397   0.96367388   0.02083232 
         398    1.0295008   0.10507451 
         399   0.98478444  0.043322289 
         400    1.0082715   0.11181579 
         401    1.0157752 -0.048035843 
         402   0.99548613 0.0033087373 
         403    1.0257227 -0.016897951 
         404      1.03045  0.015564432 
         405   0.98725165  0.028141705 
         406    1.0268668 0.0014227914 
         407   0.99280839 -0.0004357313 
         408    1.0166867 -0.021972823 
         409    1.0166423  0.035982854 
         410   0.99854723  0.038670821 
         411     1.023716   0.11843071 
         412    0.9816194 -0.022822064 
         413   0.95734958  0.016501757 
         414   0.99281684  0.034108372 
         415    1.0152372  0.059706361 
         416    1.0038998  0.040393182 
         417    1.0130082   0.10310173 
         418    1.0048204   -0.0175522 
         419   0.98113838  0.047637796 
         420    1.0323063  0.083334838 
         421    1.0324954 -0.010117488 
         422    1.0193773   0.10593127 
         423    1.0022816  0.058159651 
         424   0.99001931  0.049864125 
         425    1.0409075   0.13931535 
         426    1.0178139  0.043945028 
         427   0.98534781 -0.049295075 
         428    1.0106215 -0.063517367 
         429   0.97949882  -0.11801628 
         430   0.97486802 -0.013836319 
         431   0.97989348  0.041261722 
         432   0.94601387  0.048215363 
         433    1.0016816 -0.038055766 
         434    1.0149786 -0.032474504 
         435    0.9846623  0.040742086 
         436   0.97098954 -0.036930324 
         437   0.96746226  0.019376992 
         438     1.012649  0.049729849 
         439    1.0181035 -0.057074323 
         440   0.99804138 -0.076530148 
         441    0.9878562 -0.042244717 
         442    1.0083481  0.045030583 
         443    1.0371741  0.052567828 
         444   0.99505653 -0.029176754 
         445   0.99661027 -0.00097138139 
         446   0.98364642  0.035710176 
         447    1.0195626  0.037057099 
         448   0.97425081  0.080002493 
         449    1.0484439  0.033360089 
         450   0.96085994  0.047444541 
         451   0.96839478  0.028173833 
         452   0.97457327  0.022121254 
         453   0.98921675  0.029862427 
         454   0.99364848  0.089261157 
         455   0.98706622  -0.03180982 
         456   0.98283722  0.042565449 
         457    1.0468751   0.12788493 
         458    0.9962532 -0.051407872 
         459   0.99454378 -0.028081121 
         460    0.9723795  0.053536286 
         461    1.0063531  0.081855851 
         462    1.0136078 -0.0017003894 
         463   0.97657851 -0.012665786 
         464    1.0324229 -0.065642595 
         465   0.96830779   0.06873707 
         466   0.98627274   -0.0543108 
         467    1.0033666  0.010614076 
         468    1.0283509  0.031040543 
         469    1.0327242  0.096523061 
         470   0.96486757   0.05484404 
         471    1.0039665  0.045142877 
         472    1.0024591 0.0015539387 
         473    0.9865061 -0.034085161 
         474   0.98292563 -0.052188475 
         475    0.9499337 -0.033495494 
         476   0.96398012  0.020417462 
         477   0.97404267  0.036527156 
         478   0.98162734 -0.016569606 
         479   0.99111114 -0.039424574 
         480   0.99494044   0.10627056 
         481    1.0088899  0.078104538 
         482   0.95414386 -0.013315908 
         483   0.98502867  -0.11752169 
         484   0.99738278 -0.021115188 
         485    1.0061209  0.053940891 
         486    1.0525634  0.097791071 
         487    1.0336445  0.074496437 
         488   0.96813042   0.04231568 
         489    1.0101358 0.0056553648 
         490   0.97056815  0.029951857 
         491     1.003965  0.076233984 
         492    1.0229959 0.0074552824 
         493    1.0009884  0.011751197 
         494   0.99016256 -0.054845679 
         495    1.0176805 -0.0071353295 
         496   0.99397146    0.1763807 
         497    1.0148659 -0.0026171855 
         498    0.9615076 -0.050632134 
         499   0.97444809  0.078994883 
         500    1.0199071   0.03370312 
         501    1.0137201   0.15260367 
         502   0.99572867 -0.052379725 
         503    1.0139124 -0.054060996 
         504     1.009448 -0.039862349 
         505    1.0040848  0.071152327 
         506    0.9427159  0.013964566 
         507   0.99439131  0.026765844 
         508   0.98988426   -0.0319831 
         509    0.9478674  0.029381298 
         510    1.0110124  0.069171717 
         511    1.0443052  -0.11055321 
         512    1.0429242 0.0080565474 
         513   0.98067375 -0.033839431 
         514    1.0046833  0.039452168 
         515    1.0449019   -0.1078541 
         516   0.99459182   -0.0341324 
         517   0.98013617  -0.12940502 
         518    1.0403026 -0.082391374 
         519    1.0451866  0.016287393 
         520   0.99463077  0.051672392 
         521   0.99751587 -0.00055919871 
         522   0.99394724   0.11923112 
         523    1.0050422  0.032433885 
         524   0.99231102 -0.0082970742 
         525     1.017415 -0.026982122 
         526   0.95093003   0.06045706 
         527    0.9938155 -0.052031257 
         528    1.0131545  0.034753151 
         529   0.96572887  -0.02719516 
         530   0.98593491 -0.083402459 
         531    1.0528318   0.12122614 
         532    1.0119195 -0.061040254 
         533   0.97917937 -0.010665937 
         534    1.0347324  0.052236831 
         535    1.0215021  0.029120788 
         536   0.94361773  0.071197397 
         537   0.97640106     0.100407 
         538   0.99641942 0.0010942665 
         539    1.0359373   0.06872932 
         540    1.0110427  0.075587418 
         541    1.0221088   0.13869337 
         542   0.99449939 -0.041917971 
         543    1.0003047  0.044309321 
         544    1.0152206  0.023658485 
         545   0.96918806 -0.0015339587 
         546     1.020363   0.07389974 
         547    1.0130233  -0.05596161 
         548    1.0102711 -0.010696241 
         549    1.0291208  0.028531885 
         550   0.95641999  0.027232809 
         551   0.98840526  0.022352735 
         552     1.045708  0.038593473 
         553   0.99162525 -0.047135376 
         554    1.0288718 -0.045873331 
         555    1.0005074   0.19002126 
         556    1.0512624  0.044066337 
         557   0.97832995 -0.015477636 
         558    1.0216198  0.056356837 
         559    1.0099555 -0.00028581833 
         560   0.98452958   -0.1036633 
         561    1.0111535  0.012201346 
         562   0.99679179  0.017709608 
         563    1.0246252 -0.025233561 
         564    1.0413193 -0.0089243364 
         565   0.98974863 -0.059211016 
         566   0.99720913 -0.011625514 
         567    0.9864213  0.008160681 
         568    1.0014662   0.12552741 
         569   0.97105478  -0.07967207 
         570    1.0218344  -0.01090242 
         571   0.93256156   0.07723226 
         572   0.94524151  0.033823512 
         573   0.99763138  0.038320645 
         574     1.048158   0.17259284 
         575    1.0235817 -0.044596617 
         576   0.97375211  0.033268514 
         577    0.9456512 0.0022915989 
         578   0.99065148 -0.036639145 
         579    1.0226083   0.16131688 
         580    1.0180376  0.038714821 
         581   0.99777522 -0.069249969 
         582   0.94662966  0.037910502 
         583    1.0429939   0.13258009 
         584    1.0423083  0.050214871 
         585   0.99851231 -0.010270949 
         586   0.96843148   0.09015786 
         587   0.98452918  0.019233048 
         588   0.96546605  0.011167445 
         589    1.0033169 -0.073784819 
         590    1.0664022   0.10022797 
         591   0.99883292  0.032745745 
         592   0.96702928   0.11099215 
         593   0.98715551  0.031236667 
         594   0.96653691 -0.019147367 
         595   0.94946763  0.030881342 
         596    1.0115388 -0.0078769564 
         597    1.0479605  0.065618123 
         598   0.96925855  0.048945436 
         599   0.98826442 0.0035018983 
         600    1.0261822  0.089563106 
         601    1.0005593  0.066538994 
         602    1.0131403  0.063324647 
         603   0.99679993  0.036751426 
         604   0.97617618 0.0045870692 
         605    1.0190734 -0.015371743 
         606    1.0028206 -0.032568006 
         607   0.99858934   0.14199353 
         608    1.0283626 -0.027353655 
         609    1.0020206  0.011950784 
         610    1.0224038   0.11708072 
         611   0.99107132   0.10240274 
         612    1.0156462  -0.11981051 
         613    1.0018192 -0.027214264 
         614    0.9670558  0.076632393 
         615    1.0117607 -0.0022208544 
         616    1.0197186   0.12283412 
         617    1.0241385  0.061066867 
         618    1.0330068   0.07181058 
         619    1.0142743  0.031569862 
         620    1.0120558 -0.005757159 
         621    1.0003989  0.066034954 
         622    1.0099129 -0.047698288 
         623    1.0447215  0.040251853 
         624    1.0092329  0.073685539 
         625   0.98074641 -0.014588716 
         626    1.0052661   0.07390217 
         627   0.95554194 0.0028237011 
         628    1.0068698  0.032655605 
         629    1.0267146  0.032168905 
         630    1.0020271 -0.026415865 
         631   0.97908933  0.079288189 
         632    1.0363932   0.11617313 
         633   0.98955564 0.0068455582 
         634    1.0333879  0.032937302 
         635    1.0034825 0.0037289042 
         636   0.99422504 -0.038285566 
         637   0.99585159  0.093099141 
         638    0.9757559 0.0024499604 
         639    1.0100714 -0.0040458467 
         640    1.0283676   0.09425297 
         641   0.99635205   0.11005273 
         642    1.0253942 -0.014025013 
         643   0.98655232  0.031067226 
         644   0.98434093  0.026445746 
         645    1.0128851  -0.11781109 
         646   0.98396936 -0.041184222 
         647    1.0515945   0.09827377 
         648    1.0096244  0.085011851 
         649    1.0302853  0.031849181 
         650   0.95405187 0.0066566675 
         651   0.96689516 0.0065890716 
         652    1.0225382   0.14794112 
         653    0.9610894  0.060031991 
         654   0.95266812 -0.090148986 
         655    1.0262261  0.067514217 
         656    1.0185229  0.034280298 
         657    1.0215252    0.0566196 
         658   0.95910571  -0.10695077 
         659   0.96873661   0.01630865 
         660   0.98415905  0.030891351 
         661    1.0146491  0.023886064 
         662   0.97963081 -0.043486347 
         663    1.0320105  0.031559182 
         664    1.0275737  0.044086212 
         665    1.0496709   0.11544171 
         666   0.99591265    0.1006863 
         667   0.98121633  0.095034496 
         668    1.0015061    -0.009618 
         669    1.0641865  0.036871789 
         670   0.95514339 -0.014735629 
         671   0.98793145 -0.0052279201 
         672   0.99221004  0.083585866 
         673    1.0108029  0.069431362 
         674    1.0490733 -0.024596999 
         675    1.0129921  0.027873984 
         676   0.98975365 0.0023468271 
         677   0.99795711   0.13305214 
         678   0.96151819   0.02648957 
         679     1.020899  0.029588417 
         680     1.012775  0.076630038 
         681   0.98400498 -0.064024843 
         682    1.0213187  0.026317729 
         683   0.99576171   0.12183699 
         684    1.0137429  0.048483223 
         685   0.99166564  0.032280162 
         686    1.0067867  0.041897899 
         687    1.0350909  0.097921447 
         688   0.96211425  0.028273394 
         689   0.97688474 0.0077361326 
         690    1.0382977  0.028483667 
         691    1.0143631   0.13570172 
         692    1.0476305 -0.017436415 
         693    1.0021871  0.019268031 
         694   0.96042389 0.0059488616 
         695   0.98906289  0.096023315 
         696      1.02006 -0.057719613 
         697    1.0154817  0.015737842 
         698    1.0440783  0.051209086 
         699    1.0068988  0.038554532 
         700   0.95906574 -0.056579557 
         701    1.0107022   0.11569396 
         702   0.99017578  0.028056406 
         703   0.98689357  0.021766947 
         704    1.0449665  0.081804904 
         705   0.97302993   0.07688359 
         706   0.99221348  0.003623035 
         707     1.039544 -0.021308577 
         708    1.0301088   0.15565475 
         709    0.9948865 -0.034728466 
         710   0.97382927  0.064876134 
         711   0.94612966 0.0033562036 
         712   0.97408876  0.016606992 
         713    1.0174283 -0.064496614 
         714    1.0272706 -0.069387395 
         715    1.0884629   0.07600361 
         716   0.99861167 -0.067681893 
         717   0.99037673 -0.047269136 
         718    1.0599921  0.037973169 
         719    1.0329097  0.077900997 
         720    1.0047448   0.11163119 
         721    1.0065761 -0.054657962 
         722   0.95332093 -0.045896813 
         723   0.95720307 -0.019299572 
         724    1.0302948  0.065399027 
         725   0.97900705 -0.029890053 
         726    1.0295546  0.051215595 
         727    1.0093277  0.009930619 
         728   0.98884205  0.054842777 
         729   0.98523122   0.11078857 
         730    1.0238588   0.10965247 
         731   0.97178899  0.060554297 
         732    1.0244933   0.14723036 
         733   0.96889393  0.018004841 
         734    1.0131424  -0.16784246 
         735    1.0121024  0.061525746 
         736   0.95653913 -0.016324362 
         737   0.99336068  0.057032556 
         738    1.0097635  0.062436167 
         739    0.9899928 -0.020344434 
         740   0.98222441 -0.032610068 
         741   0.99109339  0.034579906 
         742   0.99610133 -0.049558112 
         743    0.9899351  0.093310178 
         744    1.0233781   0.18305187 
         745    0.9590989   0.10357933 
         746   0.97429174 -0.071642308 
         747   0.95579138  0.023655535 
         748    0.9981922 -0.064639531 
         749   0.99357386 0.0018803084 
         750   0.98074041   0.01481699 
         751   0.95678111 -0.037927093 
         752   0.95227711  0.094810361 
         753   0.99724527 -0.0095001604 
         754    1.0065278 -0.064413805 
         755    1.0086653    0.1114411 
         756    1.0489867  0.074124863 
         757     1.021257  0.020709019 
         758   0.97331464 -0.016359371 
         759   0.97393012  0.071487367 
         760   0.95262751  0.094174772 
         761     1.054387 -0.035553233 
         762    1.0501137   0.15133837 
         763   0.97772766 -0.0034487751 
         764   0.99940431  -0.14104983 
         765   0.99925385   0.04590521 
         766    1.0230866  0.084777876 
         767   0.97397351 -0.053353852 
         768    1.0095898 -0.035563757 
         769    1.0027713   0.10577356 
         770    1.0128952  0.093732818 
         771   0.98082631  0.024442143 
         772   0.95710856  0.074604583 
         773    1.0381136   0.17506877 
         774    1.0270339  0.005310052 
         775   0.99233053  0.090849793 
         776     1.000715  -0.06502868 
         777    1.0073249 -0.0038281539 
         778    1.0149326  0.099608251 
         779    1.0003145  0.013137498 
         780    1.0148829  0.041966231 
         781    1.0237395 -0.035655173 
         782   0.98795223  -0.11272672 
         783   0.99966952    0.1112951 
         784    1.0062273 -0.050494998 
         785    1.0338348   0.10230399 
         786   0.95484795  -0.12806096 
         787    0.9802456  0.027525029 
         788   0.99383048 -0.093571426 
         789   0.98798099  0.055293751 
         790   0.95769597 -0.023657183 
         791   0.98270787   0.11063309 
         792    1.0044857 -0.019260507 
         793   0.99023666  0.011011764 
         794    1.0169349 -0.0025280488 
         795   0.99372032 -0.035734181 
         796    1.0001952 -0.074447791 
         797   0.99700249  0.056919812 
         798    1.0084461  0.061120781 
         799    1.0070768  0.025521265 
         800    1.0018028  0.057563628 
         801   0.99805948   0.15178658 
         802   0.98816365   0.11970095 
         803    1.0003594 -0.0042940019 
         804    0.9407328   0.11335359 
         805   0.97784523  0.038272669 
         806    1.0151433 -0.050651165 
         807     1.006106  -0.02082333 
         808    1.0324667  -0.01810507 
         809    1.0191648 -0.027196724 
         810   0.98251806   0.11768005 
         811    1.0247631  0.086030011 
         812    1.0365156   0.13157922 
         813   0.99043958  0.025663804 
         814    1.0227193 -0.034315756 
         815   0.98713277  0.095142031 
         816   0.98730136   0.16801044 
         817    1.0122431  0.086533267 
         818   0.98601896  0.061016097 
         819   0.98340793   0.11559661 
         820    1.0107747 0.0026669325 
         821    1.0096397   0.14076131 
         822   0.97891218   0.12952679 
         823     1.019731  0.011057128 
         824   0.97239414    0.1067192 
         825   0.98860651  0.063409199 
         826    1.0096858  0.001860184 
         827   0.99748362  -0.04220395 
         828     1.030043  0.059821726 
         829      1.00238   0.11334723 
         830   0.97165263  0.047929948 
         831    1.0436494  0.051659795 
         832   0.96032732 -0.019799471 
         833    1.0408341  0.018828534 
         834    1.0027208  0.025768503 
         835    1.0119248  0.062757174 
         836   0.98597568   0.05352326 
         837    1.0318646   0.19097633 
         838   0.98345491  0.074234112 
         839   0.96583646   0.12362432 
         840   0.99613025  0.082035587 
         841    1.0370561  0.036564689 
         842   0.95907677  0.026534728 
         843   0.99289606 -0.039953485 
         844   0.98616419  0.014888708 
         845    1.0024303  0.041984166 
         846     0.995849  0.038096252 
         847   0.96490252 -0.098132087 
         848    1.0100457  0.053598472 
         849   0.99042438 -0.056536169 
         850    1.0526816  0.025765498 
         851   0.97986444  0.074478908 
         852   0.98494272  0.031096181 
         853   0.98968718 -0.0020314996 
         854    1.0134967   0.18270848 
         855    1.0069861  -0.06536556 
         856   0.97626273   0.04096447 
         857    1.0281714 -0.055451972 
         858   0.95316104   0.00118736 
         859   0.96886016  0.053506349 
         860   0.97807013    0.0219567 
         861   0.97497207   -0.0215865 
         862   0.97445038 -0.028145882 
         863   0.96997343 -0.038448676 
         864   0.97309619   0.03437083 
         865   0.97176659   0.05169897 
         866   0.94590031 -0.065391651 
         867    1.0055671  0.038481614 
         868    1.0519836  0.098265964 
         869   0.99932387  0.041935986 
         870   0.96581881 -0.0066310067 
         871   0.95539219  0.017001412 
         872   0.98813492  0.011403025 
         873   0.98169738 -0.041463052 
         874    0.9971634 0.0051595809 
         875    1.0484731  0.038095256 
         876   0.94683559 -0.079093002 
         877    1.0043411 -0.024524126 
         878   0.97222973 -0.054169599 
         879    1.0515168  0.046976691 
         880    1.0256009  -0.05269616 
         881   0.99703589 -0.0031261839 
         882    1.0312789  0.059278909 
         883    1.0046023  0.069885385 
         884    1.0132464  0.075160926 
         885   0.98659547   0.12353835 
         886   0.99544919 0.0013975704 
         887    1.0115567  0.038744862 
         888   0.95785085  0.077946301 
         889    1.0215711  0.041210473 
         890    1.0115267  0.071048244 
         891    1.0010056 -0.018160674 
         892    1.0158086  0.024823413 
         893    1.0080335   0.26399391 
         894   0.97683935  0.079806809 
         895    1.0913647  0.058015334 
         896    1.0710557  0.089916766 
         897    1.0290532  0.068631045 
         898    1.0069823  0.095377024 
         899    1.0026347 -0.066714056 
         900   0.99836812 0.0051949243 
         901    1.0496476  0.099794551 
         902   0.99926185  0.054148665 
         903   0.99019064   0.10726991 
         904   0.99341883  0.078088783 
         905   0.99899999  0.040136422 
         906    1.0210981  0.018126577 
         907   0.98263137  0.021139286 
         908   0.96308105  -0.03253239 
         909    1.0212207 0.0066887587 
         910     1.077043   0.13420476 
         911   0.95007837  0.088704298 
         912   0.99267856  0.033150871 
         913    1.0320407   0.17148859 
         914    1.0028799 0.0094879343 
         915   0.99202136  0.045303754 
         916   0.96361943  0.097912054 
         917   0.97426451   0.10379118 
         918   0.97820373  0.082689349 
         919   0.98428811  0.015023481 
         920   0.96805275 -0.002568469 
         921   0.96575537 -0.041565137 
         922   0.99056353 -0.057298738 
         923    1.0252089  0.025451083 
         924   0.94297667 -0.013378662 
         925    1.0030571   0.11122274 
         926    1.0050857  0.054569996 
         927   0.96324889  0.033978818 
         928   0.93617455  0.025980063 
         929    1.0268097    0.0493866 
         930    1.0375976  0.034937416 
         931    1.0536147  0.035281309 
         932    1.0498187  0.027263335 
         933   0.96647553  0.096020152 
         934   0.98061558 -0.021657941 
         935    1.0315414  0.045303755 
         936    1.0281425  0.063947224 
         937   0.99116038  0.070690513 
         938    1.0002485  -0.12591665 
         939    1.0326588  0.080016682 
         940   0.99750056 -0.017126938 
         941   0.97860669 -0.063715305 
         942    1.0116845  0.065896726 
         943    1.0893312  0.046748423 
         944   0.98710888  0.017872124 
         945   0.99312416 -0.052775318 
         946    1.0199947   0.18714321 
         947   0.98705909 -0.074192812 
         948   0.98712498   0.12581805 
         949      1.00291  0.071677498 
         950   0.98479025  -0.06283682 
         951   0.97621554  -0.10174696 
         952   0.94859334   0.12276724 
         953    1.0383903  0.031132514 
         954   0.98928537  0.073376636 
         955    1.0051902   0.15017243 
         956    1.0429554  0.081851406 
         957   0.97279822   0.10685634 
         958    1.0419004   0.04927573 
         959    1.0569562   0.09189979 
         960     1.001485 0.0038833803 
         961   0.97386126 -0.00074249115 
         962   0.97474949  0.046340709 
         963   0.97748456 -0.063312121 
         964    1.0197676  0.078805045 
         965    1.0105772 -0.015340141 
         966    1.0352934 -0.045524881 
         967    0.9910878  0.025082272 
         968    0.9559585 -0.046766023 
         969   0.97011896  0.073375562 
         970   0.98156544 0.0035500208 
         971    1.0394471  0.046474377 
         972     1.037608  0.029992666 
         973    1.0245479   0.10408879 
         974    1.0154312   0.10536687 
         975   0.99921351 -0.037237914 
         976   0.98753015 0.00048502636 
         977    1.0469974    0.1057036 
         978   0.97774151  0.068981408 
         979    1.0299993 -0.042505861 
         980    1.0024479 -0.030063167 
         981   0.98197656  0.074217307 
         982   0.96375284  -0.10746208 
         983     1.004734 0.0066142282 
         984    1.0367604 -0.014478998 
         985    0.9739337   0.14171577 
         986   0.99125195  0.025445186 
         987    1.0220272 -0.0076086949 
         988    1.0294174 0.00083885485 
         989   0.98474709   0.11596632 
         990    1.0053478 -0.030146502 
         991   0.93841054  0.063126886 
         992    1.0106261 0.0038773183 
         993   0.95650419 -0.024949323 
         994    0.9347835 -0.0094827262 
         995   0.98362707 -0.059541277 
         996     1.033546  0.077010887 
         997    1.0667194  0.045322534 
         998   0.95399088  0.030976017 
         999    1.0282368  0.010892963 
        1000   0.96701603 -0.0098256607 
        1001   0.98768531 -0.055199242 
        1002   0.99656385 -0.011987083 
        1003    1.0030969 -0.016286253 
        1004   0.98170255 -0.025981673 
        1005    1.0565011   0.03415133 
        1006   0.99736604  0.039481814 
        1007   0.97281457  -0.04274878 
        1008    1.0055683 -0.033375597 
        1009    1.0191023 -0.0085075746 
        1010    1.0019056 -0.021636805 
        1011    1.0345532  0.047857811 
        1012   0.98624456  0.011775127 
        1013    1.0146551 0.0033488925 
        1014   0.99614984   0.10689536 
        1015    1.0114578  0.074944825 
        1016   0.99372147  0.057357773 
        1017    1.0097273 -0.0070672243 
        1018    1.0147546 0.0052473335 
        1019    1.0002099  0.019481934 
        1020   0.96667309   0.07633232 
        1021   0.99796615   0.13173892 
        1022   0.98927115 -0.027565254 
        1023   0.94873105  0.076418082 
        1024    1.0515736  0.020889674 
        1025    1.0208378  0.068668829 
        1026    1.0301024  0.093942874 
        1027    1.0323024  0.062358915 
        1028    1.0473569   0.11254512 
        1029   0.99230744  0.083044866 
        1030    1.0313461  0.063121494 
        1031   0.99519975   0.09121399 
        1032   0.99938768  0.071317574 
        1033    1.0151327 0.0024119279 
        1034    1.0085766 -0.024155379 
        1035   0.93558908  0.057794358 
        1036    1.0042337 -0.0071780116 
        1037    1.0101427   0.10271516 
        1038    1.0370933  0.006229369 
        1039    1.0167114 -0.022857269 
        1040    1.0468626   0.02358781 
        1041    0.9703623 -0.030046296 
        1042    1.0291091 -0.059346069 
        1043    1.0356451 -0.050493683 
        1044    1.0436824  0.023657892 
        1045   0.97553981 -0.043568358 
        1046    1.0280711  0.012363985 
        1047    1.0174455  0.068269125 
        1048   0.97552827   0.05347588 
        1049    1.0621921  0.062923091 
        1050    1.0153963 -0.039488332 
        1051   0.95070646  0.089446364 
        1052   0.97805872 0.0029331509 
        1053    0.9664647 -0.012637008 
        1054    1.0019151  -0.10496554 
        1055    1.0150301 -0.0082534909 
        1056   0.98098731   0.10382327 
        1057   0.97502144   0.01749274 
        1058     0.968661  0.020993244 
        1059   0.97929426  0.013802357 
        1060    1.0185952   0.11766933 
        1061    1.0082191   0.13013751 
        1062    0.9964626 -0.0017837299 
        1063   0.99223528  0.012954983 
        1064     1.001096 -0.0083510249 
        1065    1.0071442    0.0825871 
        1066    1.0050538  0.046035792 
        1067    1.0412272   0.12539693 
        1068   0.98778765  0.057726614 
        1069   0.98748849   0.02749358 
        1070    1.0270293  0.087198137 
        1071    1.0034254 -0.093117165 
        1072    1.0649836 -0.080885232 
        1073    1.0035621  -0.11053822 
        1074   0.96295066 -0.025952835 
        1075   0.97478416   0.10344979 
        1076   0.96120331  0.084768633 
        1077    1.0030338 -0.071665398 
        1078    0.9856852 0.0015895801 
        1079   0.95841693  0.056704675 
        1080    1.0146236   0.18750602 
        1081   0.98204231  0.089088266 
        1082   0.97288474  0.078304168 
        1083     1.017543 -0.0036361862 
        1084    1.0360959  0.035675444 
        1085    1.0128597   0.04373723 
        1086   0.97810236  0.017968893 
        1087    1.0073256 -0.032962198 
        1088    1.0214524   0.10582197 
        1089    1.0130407 0.0043612402 
        1090    1.0194812   0.16146653 
        1091    1.0009063   0.10739207 
        1092    0.9971942  0.061755133 
        1093   0.93442815 -0.083042478 
        1094    1.0090943 -0.0015258845 
        1095    1.0463765  0.023525877 
        1096    1.0146874 0.0028059709 
        1097   0.99622318  0.045422466 
        1098   0.99120481 -0.034461391 
        1099    0.9985582  -0.12877707 
        1100   0.97533202 -0.046413437 
        1101    1.0072938   0.15272429 
        1102   0.99644484  0.044547432 
        1103   0.99624285 -0.0077935642 
        1104   0.94424671  0.019973165 
        1105   0.98301622  0.051450263 
        1106   0.94543268   0.11519529 
        1107   0.99518038  0.084372966 
        1108    1.0174419 -0.020441518 
        1109    1.0229477  -0.12248135 
        1110    1.0472109   0.11537645 
        1111    1.0184813  -0.00499076 
        1112   0.95459342  -0.11507643 
        1113    0.9861999   0.02314803 
        1114   0.99436731  -0.03586626 
        1115   0.96937953 -0.087451984 
        1116   0.98770373  0.044357445 
        1117     1.039883  0.042780218 
        1118   0.96214006 -0.078634496 
        1119   0.97777369 0.0099906885 
        1120   0.99974383 -0.085681251 
        1121   0.98411393  0.049875023 
        1122   0.93344756  0.023183577 
        1123   0.94668136  0.065675893 
        1124    1.0230401  0.064249363 
        1125   0.99498302 0.0045809352 
        1126   0.96166688  -0.05430742 
        1127   0.96024035  0.046393182 
        1128    1.0116306 -0.0045825476 
        1129   0.99634078  0.045911122 
        1130   0.99899714   0.21134704 
        1131    1.0088632 -0.064012601 
        1132    0.9661623 -0.012040828 
        1133   0.96218424   0.14572547 
        1134    0.9545534   0.12013153 
        1135    0.9534746  0.034533095 
        1136   0.99021295 -0.025875849 
        1137   0.99626483    0.1083419 
        1138    1.0017126 -0.018675159 
        1139   0.94698865 -0.064455426 
        1140    1.0021147   0.03044431 
        1141   0.95838502 -0.034509525 
        1142   0.99631944  -0.10815031 
        1143   0.95597799 -0.092156621 
        1144    1.0320705 -0.032426107 
        1145    1.0276491 -0.069450267 
        1146   0.99405335   0.05258846 
        1147   0.98252084 -0.012994242 
        1148    1.0181524  0.080123987 
        1149    1.0359316  -0.03227466 
        1150    1.0086933  0.059281728 
        1151   0.95151552  0.092369027 
        1152   0.98076238  0.023039153 
        1153   0.99828945 -0.030312951 
        1154    1.0276279   0.05453804 
        1155    1.0150779 -0.012395929 
        1156    1.0335511   0.17994125 
        1157    1.0627085   0.12166049 
        1158   0.99020052 -0.047879389 
        1159    1.0373262  0.062343919 
        1160   0.98592025  -0.15196457 
        1161   0.99101147   0.10202965 
        1162   0.96373622  -0.12385071 
        1163   0.95647024  -0.12621658 
        1164   0.98208164   0.13467812 
        1165     1.000921   0.13681774 
        1166   0.96729904 -0.052968365 
        1167    1.0192157 -0.00034501801 
        1168    1.0133804  0.049250944 
        1169    1.0117658  0.040475858 
        1170    1.0047803   0.11206503 
        1171    0.9836536  0.012265225 
        1172    1.0142512  0.011632921 
        1173   0.98937585   0.11612671 
        1174    1.0148616 -0.0053109101 
        1175    1.0020377  0.069400203 
        1176    1.0368176  0.077615266 
        1177    1.0255833   0.11311811 
        1178   0.98630527 -0.052225441 
        1179    1.0126352   0.10840893 
        1180    1.0024499  0.092816925 
        1181    1.0396535  0.073175192 
        1182    1.0135262  0.024862967 
        1183    1.0192972 -0.044081258 
        1184    1.0087873 -0.030668467 
        1185   0.96522145 -0.031046863 
        1186   0.98650952  0.019617671 
        1187    0.9838456 -0.033775003 
        1188    1.0295324  0.041602855 
        1189    1.0318364 0.0098201508 
        1190   0.95044526 0.0055934202 
        1191   0.97424617 -0.002619774 
        1192    1.0271487 -0.025524032 
        1193   0.96534757  0.049858461 
        1194    1.0151344   0.09365442 
        1195    1.0489002  0.054532316 
        1196    1.0445432  0.042709766 
        1197   0.99727247  0.040858664 
        1198   0.95583257 -0.026503315 
        1199   0.98021811  0.022810261 
        1200    1.0178257  0.042309362 
        1201    1.0324479 -0.024008629 
        1202    1.0044796   0.10810023 
        1203    1.0036418  0.055876379 
        1204   0.98335875 -0.031346211 
        1205    0.9790712  0.037988535 
        1206    1.0635432  0.051196908 
        1207   0.99525951  0.055439891 
        1208   0.97872731  0.058798437 
        1209    1.0506036  0.010338566 
        1210   0.97196066  0.040930686 
        1211   0.92747968 -0.070189663 
        1212    1.0462333 -0.016786118 
        1213   0.95436082 -0.061880817 
        1214   0.98554518  0.045171619 
        1215     1.010557 -0.034023616 
        1216     1.023574  0.064328309 
        1217   0.98875299  0.020798856 
        1218    1.0186889  0.014714537 
        1219   0.95113534  0.029685483 
        1220    1.0557216 -0.024454783 
        1221    1.0345324  0.051020148 
        1222   0.98404079  0.097701381 
        1223    1.0244902 -0.084462811 
        1224   0.98094069  0.074865359 
        1225   0.98411404  0.064151077 
        1226   0.98100219  0.013009715 
        1227    1.0503861   0.09090287 
        1228   0.99710446  0.070154001 
        1229    1.0103818   0.04601635 
        1230   0.97759218 -0.020037715 
        1231    1.0272496  0.010816248 
        1232   0.99090895  0.029945035 
        1233    1.0314093  0.041392744 
        1234   0.99756661   0.19816974 
        1235    1.0169058  0.028973898 
        1236   0.99480087  0.051070753 
        1237    1.0048202 -0.082097095 
        1238   0.98377692  0.059144974 
        1239    1.0072396 -0.028755068 
        1240   0.97323423 -0.0012629061 
        1241    1.0225161  0.060595961 
        1242    1.0165602   0.16170304 
        1243    1.0358205 -0.038223293 
        1244      1.04732 -0.011943415 
        1245   0.96444161  0.074172787 
        1246    1.0207902 -0.063202751 
        1247   0.96394962  0.094761582 
        1248    1.0143699  0.090561546 
        1249    1.0201045    0.1326949 
        1250   0.99352798  0.061326669 
        1251   0.96242312 -0.071137526 
        1252   0.97859435 -0.073678484 
        1253   0.99953909   0.13244067 
        1254    0.9711253 0.0079022938 
        1255    1.0150625 -0.032742219 
        1256     1.055056   0.03196741 
        1257    1.0209099 -0.048168351 
        1258    1.0070594  0.030239424 
        1259   0.97718098 -0.022970143 
        1260    1.0245087  0.046272971 
        1261    1.0295525  0.025041742 
        1262    1.0180498  0.040506517 
        1263    1.0122135   0.15887073 
        1264    1.0283306  0.039925378 
        1265    1.0255663 -0.026000884 
        1266   0.99228683  0.018970641 
        1267    1.0116728   0.15347903 
        1268    1.0205316 -0.016492122 
        1269    1.0265566 -0.010210512 
        1270   0.98801156  -0.15940869 
        1271    1.0083421  0.042491479 
        1272    1.0083192  0.089536327 
        1273    1.0569678    0.1045242 
        1274    1.0345832  0.043272473 
        1275   0.95802233 -0.021513945 
        1276    1.0313959 -0.0028672113 
        1277   0.98175082 0.0074986499 
        1278   0.98992794   0.17135999 
        1279   0.98466177 -0.036448126 
        1280   0.98750341   0.17558491 
        1281    1.0185847  0.078339844 
        1282     1.013273 -0.028612783 
        1283     1.011795 -0.099448322 
        1284    1.0225146  0.055498964 
        1285     1.012388  0.069273982 
        1286    1.0065439   0.01664245 
        1287   0.98373104   0.07709905 
        1288    1.0256518  0.010057695 
        1289    1.0660901  0.081893008 
        1290   0.96908657  0.022880747 
        1291   0.99223857 -0.052112453 
        1292    1.0137156  0.089492914 
        1293     1.020441  0.081355531 
        1294    1.0082653 -0.066245408 
        1295   0.99465498  0.023162639 
        1296    1.0100866  0.095961173 
        1297   0.98958736 -0.064239196 
        1298    1.0172197   0.12868159 
        1299   0.98657265   0.20773398 
        1300    1.0521526  0.096119471 
        1301    1.0296693  0.012518514 
        1302   0.97510617   0.06587498 
        1303    1.0415226 -0.016137918 
        1304   0.99076654  0.069109992 
        1305     1.008223  0.040261174 
        1306    1.0525612  0.048658938 
        1307    1.0035163 -0.0064187213 
        1308    0.9870323 0.0093750497 
        1309    1.0109932   0.03190883 
        1310   0.98569801 -0.042247993 
        1311   0.98559841 -0.041210686 
        1312    1.0173901 -0.029970111 
        1313    1.0070237 -0.078094747 
        1314   0.99057537 -0.014410893 
        1315    1.0053585 -0.060532991 
        1316    1.0553286 0.0060370083 
        1317   0.96290304   0.08973023 
        1318    1.0018097  0.032633424 
        1319    1.0239688  0.065310996 
        1320   0.99329448  0.015759522 
        1321    1.0242391  0.080132036 
        1322   0.97753538  0.059194693 
        1323    1.0034317  -0.14884241 
        1324    1.0287505 -0.011308016 
        1325   0.99438244  0.010157791 
        1326    1.0454581 -0.053478459 
        1327   0.97350336  0.064805412 
        1328     1.026188 -0.014165389 
        1329   0.99486319 0.00058576589 
        1330    1.0078878 -0.018863262 
        1331    1.0444987    0.1265269 
        1332   0.96954895  0.018143378 
        1333   0.96228929  0.042311254 
        1334   0.93688439   0.11331101 
        1335   0.99167054  0.067677947 
        1336   0.96706106 -0.076241653 
        1337    1.0041713   0.03163229 
        1338    1.0247377 -0.019206357 
        1339   0.99326976   0.02007075 
        1340   0.98147688  0.029093527 
        1341    0.9770761 -0.00086485982 
        1342    1.0124054  0.052000668 
        1343   0.97313065 -0.024479106 
        1344   0.97992132 0.0070881885 
        1345   0.97266829 -0.021924437 
        1346    1.0033427   0.13979093 
        1347   0.95443119 0.00022527037 
        1348   0.98264245  -0.04195422 
        1349    1.0362833 0.0043438973 
        1350   0.98788482   0.11584846 
        1351    1.0131644  0.084649365 
        1352   0.99381999   0.14907793 
        1353    0.9839981   0.12842978 
        1354   0.99815743  0.050643912 
        1355    1.0178939 0.0034002889 
        1356   0.99967473 -0.071713692 
        1357   0.99394341    0.1448146 
        1358   0.99591445   0.10762236 
        1359   0.99036441   0.15147356 
        1360    1.0077527 -0.00092530971 
        1361     1.023409  0.070446304 
        1362    1.0164829  0.053645105 
        1363    1.0443555  0.034181607 
        1364    1.0387591  0.018592673 
        1365    1.0639958  0.024013094 
        1366    1.0243012  0.076050159 
        1367   0.99784978   0.16103917 
        1368   0.98700173 -0.023719639 
        1369   0.94752127 0.0064985961 
        1370   0.99540793 -0.0047938813 
        1371    1.0253553  0.042393242 
        1372   0.98369513  0.056415412 
        1373    1.0301796  0.086686758 
        1374    1.0008264  0.014265666 
        1375    1.0374335  0.063819026 
        1376    1.0001643 -0.052541811 
        1377   0.97891663  0.079737798 
        1378    1.0083066 -0.074132812 
        1379    1.0038914 -0.090169159 
        1380   0.99436682   0.12554891 
        1381     1.006297 -0.042912186 
        1382   0.98687637    0.1130676 
        1383   0.97748601  -0.02128584 
        1384    1.0111553  0.052678139 
        1385   0.98557155 0.0073585387 
        1386     1.038154  0.039396831 
        1387    1.0429516   0.16162901 
        1388    1.0065999   0.19393378 
        1389    1.0087342  0.064316694 
        1390   0.99513411 -0.014486337 
        1391    1.0218558   0.11739088 
        1392    1.0310319 -0.019111238 
        1393    1.0276219 0.0058732002 
        1394   0.97183505 -0.015075004 
        1395    0.9718508  0.074435194 
        1396   0.99360547  0.017510345 
        1397   0.97706885 -0.026181133 
        1398   0.98552242 -0.036834991 
        1399   0.95113218 0.0048589817 
        1400    1.0211513  0.053946533 
        1401    1.0112224  0.020754667 
        1402    1.0296623  0.057447899 
        1403    0.9871239 -0.012478119 
        1404   0.98836399   0.11537895 
        1405    1.0036008  0.071915351 
        1406   0.99200767 -0.087026303 
        1407    1.0042068 -0.040228482 
        1408   0.97117037 -0.025447639 
        1409    1.0018331 -0.075601248 
        1410   0.96619225 -0.005552925 
        1411    1.0008288  0.039588214 
        1412    1.0356568   0.18969435 
        1413    1.0209105  0.011627899 
        1414   0.97047824  0.060528142 
        1415    1.0047094 -0.031989574 
        1416    1.0565728  0.026610766 
        1417    1.0040802   0.01710338 
        1418   0.97950794 -0.013767914 
        1419   0.99700082  0.047977298 
        1420   0.99035216   0.10198656 
        1421    1.0401887  0.013817146 
        1422    1.0269001 -0.072510735 
        1423    0.9922994  0.086699188 
        1424    1.0188544  0.094646394 
        1425     1.072502   0.17865236 
        1426    1.0022058  0.068219421 
        1427     1.012572  0.049876018 
        1428     1.010232  0.022773618 
        1429   0.99312065  0.021911238 
        1430    1.0290043   0.13049047 
        1431    1.0207254 -0.053229898 
        1432   0.98064298   0.10202735 
        1433   0.96953649 -0.097165025 
        1434     1.041169 -0.051707737 
        1435    1.0197251  -0.13698976 
        1436   0.99992088   0.04587653 
        1437   0.96128583 0.0011620487 
        1438    1.0144428  0.049215697 
        1439     1.041675 -0.033979831 
        1440    1.0135229   0.12417222 
        1441    1.0040311   0.11156489 
        1442    1.0172564   0.11744944 
        1443   0.99699258   0.14920905 
        1444   0.98274871  -0.11922465 
        1445     1.007289 -0.0058577913 
        1446    1.0010707  0.056959151 
        1447    1.0317947    0.1301604 
        1448   0.98769682  0.031770799 
        1449    1.0185954 0.0025343725 
        1450    0.9729038 -0.034761883 
        1451    1.0012331  0.068832994 
        1452   0.97126875 -0.076431987 
        1453   0.97482821  0.010193322 
        1454     1.095398    0.2102721 
        1455   0.99067889  0.075782967 
        1456    1.0267212   0.05821375 
        1457   0.98621248 0.0024504228 
        1458    1.0319815 -0.0019263814 
        1459   0.98175787  -0.02626384 
        1460   0.99890375    0.1237094 
        1461    1.0161458  0.021737626 
        1462    1.0192341  0.089479962 
        1463    1.0294738  0.053218254 
        1464    1.0043343  0.014384834 
        1465   0.99423597  0.021080795 
        1466   0.98406637  0.042139785 
        1467   0.98793283  0.022073803 
        1468    1.0040228  0.034454992 
        1469    1.0353296 -0.072850002 
        1470    1.0209203 -0.0072530363 
        1471    1.0224478 -0.019794052 
        1472    1.0323807  0.047062079 
        1473    1.0014428  0.024274207 
        1474    1.0040557  0.066478357 
        1475    1.0128873  0.049593528 
        1476   0.98702473  0.058880385 
        1477    0.9918568  0.070802103 
        1478   0.96544235 -0.061222902 
        1479    1.0191667   0.11753768 
        1480   0.98824519   0.14344738 
        1481    1.0646918 0.0073527219 
        1482    1.0285127 -0.049475115 
        1483    1.0186256  0.027054406 
        1484   0.97182719   0.04174015 
        1485   0.95842222 -0.077552665 
        1486    1.0155954  0.043733859 
        1487   0.97532643 -0.0018640948 
        1488   0.99353781  -0.06312483 
        1489   0.99310278  0.018896244 
        1490   0.96866143 -0.061883641 
        1491    1.0099818  0.022013953 
        1492   0.97275555 -0.023105041 
        1493    0.9891573 8.7967111e-05 
        1494    1.0040837  -0.06366772 
        1495    1.0023733 -0.019977916 
        1496      1.02762  0.099345715 
        1497    1.0719896   0.17439679 
        1498   0.97832301  0.025634245 
        1499   0.94995035   0.02210389 
        1500   0.97928812    0.1183747 
        1501    1.0041915 -0.027196589 
        1502   0.99967882   0.13294119 
        1503   0.95830351  0.085667165 
        1504   0.99394457 -0.049252256 
        1505    1.0478289  0.049519513 
        1506    1.0095007  0.010806363 
        1507    1.0341959  0.091240258 
        1508    1.0228807  0.012944974 
        1509    1.0184971  0.038964071 
        1510     1.011852 -0.012289926 
        1511   0.98697589 -0.053410368 
        1512   0.98352333 -0.030009028 
        1513   0.97693573    -0.045843 
        1514   0.98092099 -0.0086509731 
        1515    1.0114291  0.029451067 
        1516    1.0489234 0.0027641603 
        1517    1.0112788  0.036768707 
        1518    1.0105013 -0.011777178 
        1519   0.98639962  0.031612451 
        1520   0.97735312  0.072557833 
        1521    0.9522872  0.051467054 
        1522    1.0007702  0.052468185 
        1523   0.98197515  0.033377262 
        1524     1.030933   0.11105559 
        1525    1.0016648 -0.020484233 
        1526    1.0322295  0.061953887 
        1527   0.97532182  0.014955112 
        1528   0.98689865 -0.049875785 
        1529    1.0294719 -0.025504037 
        1530   0.99650661  0.098866243 
        1531     1.014933 -0.0094661613 
        1532     1.033908  0.018567128 
        1533    1.0022905  0.033826774 
        1534    0.9987064 -0.093371352 
        1535   0.99444075   0.14695789 
        1536   0.98580626 -0.037951842 
        1537   0.97769279 -0.0041087262 
        1538    1.0072948  0.038246303 
        1539    1.0657793  0.039087458 
        1540    1.0001334 0.0078731159 
        1541    1.0585931  0.093176069 
        1542   0.98538146  -0.13797141 
        1543    1.0029065 -0.033081775 
        1544    1.0097064  0.082679204 
        1545    1.0523613  0.099845845 
        1546    1.0129381  0.083739171 
        1547    1.0215407   0.17062919 
        1548     1.007807  0.069578823 
        1549   0.97859366   -0.0436572 
        1550   0.97475727 -0.046193115 
        1551   0.98142986  0.057727792 
        1552   0.99270582 -0.031421734 
        1553   0.99387166 0.0085108561 
        1554    1.0250991 -0.0087190205 
        1555    1.0450271   0.12119187 
        1556   0.95691168  0.094144485 
        1557   0.96747124   0.16216529 
        1558   0.96577835  0.038459097 
        1559   0.99758658 0.0042279238 
        1560   0.98380285 -0.055256739 
        1561     1.035321 0.0090209979 
        1562   0.96878086  -0.05463205 
        1563   0.98966194 -0.063685527 
        1564   0.95183268 -0.062786659 
        1565   0.99700904  0.053987653 
        1566   0.95263235  0.023104043 
        1567    1.0015221  0.064194821 
        1568    1.0448226   0.04360111 
        1569    1.0497425  0.099455723 
        1570   0.98771068  0.034705235 
        1571   0.96040268 -0.024519541 
        1572    1.0305176   0.10074699 
        1573   0.96841715  0.024320018 
        1574   0.99037036   0.11585618 
        1575    1.0532528 -0.050751311 
        1576   0.98625407  0.067310756 
        1577    1.0264602  0.049969839 
        1578    1.0285856   0.08513132 
        1579    1.0116247  0.019903324 
        1580    1.0021204 0.0071245041 
        1581   0.97007436 -0.0048379191 
        1582    1.0410432  0.067521165 
        1583     1.057105  0.016932943 
        1584    1.0224802 -0.056399743 
        1585   0.97282172 0.0019662942 
        1586   0.99738191 0.0063817812 
        1587   0.96069989 -0.012878425 
        1588    1.0121261  0.084441583 
        1589    1.0128552 0.0052870163 
        1590    1.0003357  -0.11008192 
        1591    0.9858633 -0.0081642111 
        1592   0.97905678 0.0066244463 
        1593     1.021748   0.14068497 
        1594    0.9113709  0.090511307 
        1595   0.99143179  -0.02116817 
        1596    1.0631299   0.14012082 
        1597   0.97058136 -0.027879724 
        1598   0.92416038 -0.0063821312 
        1599     1.022764 -0.051644225 
        1600    1.0069654 -0.081773492 
        1601   0.96147282  0.049554362 
        1602     1.012694   0.11134034 
        1603    1.0158885   0.17420551 
        1604    1.0118927  0.085408002 
        1605   0.97520441   0.10153355 
        1606    1.0281289  0.068367859 
        1607   0.98031538  -0.03777579 
        1608    1.0344526  0.052048284 
        1609   0.95615812  -0.13065724 
        1610   0.97775147  0.045020787 
        1611    1.0164612  0.075592649 
        1612   0.96558554  0.086587428 
        1613    1.0242622   0.11094578 
        1614    1.0399234   0.10261002 
        1615   0.99068955  -0.11468598 
        1616    1.0012757  0.062559772 
        1617   0.97509537  0.049735279 
        1618    1.0250488  0.024183577 
        1619    1.0254732  0.039984767 
        1620    0.9862049 -0.046972843 
        1621     1.005682 0.0051932868 
        1622   0.96450942 0.0067395845 
        1623   0.97328916  0.066199964 
        1624   0.99317851  0.067163722 
        1625   0.94262565 -0.0028311982 
        1626    1.0115912   0.17459273 
        1627   0.98553849  0.080951161 
        1628   0.99371226   0.01705842 
        1629   0.98764631  0.046579475 
        1630    1.0341734  0.004843617 
        1631    1.0229655  0.018866623 
        1632   0.99786524  0.090018634 
        1633   0.99928756 -0.0076273914 
        1634   0.98795339  0.040961904 
        1635    1.0796074  0.083158444 
        1636   0.99853774     0.051931 
        1637   0.98577468  0.015972708 
        1638    1.0088532 0.0090707617 
        1639    1.0097422  0.054302531 
        1640   0.99308911 -0.0039308603 
        1641   0.98840548 -0.022440403 
        1642    1.0296097  0.087617267 
        1643   0.99874988  0.092660806 
        1644    1.0122202  0.068412179 
        1645    1.0106338 -0.018540781 
        1646   0.99817873   0.04821198 
        1647   0.96086675  0.090785573 
        1648    1.0123887   0.16377889 
        1649   0.99423012   0.11693242 
        1650       1.0275  0.019261034 
        1651    1.0098458 -0.0046550127 
        1652   0.99295298  0.024054176 
        1653    1.0072217    0.1190751 
        1654   0.98904412  0.081902844 
        1655    1.0049756  -0.02508218 
        1656    1.0141478  0.088360228 
        1657    1.0333838  0.072998621 
        1658   0.98109691  0.059044975 
        1659      1.00041   0.07695187 
        1660   0.96701986  0.083638793 
        1661    1.0318713  -0.01409935 
        1662   0.95708508  0.093753275 
        1663    1.0356972  0.043454338 
        1664    1.0035798   0.14730043 
        1665    1.0031673 -0.056996029 
        1666   0.99960739  0.027604019 
        1667    1.0210649 0.0059165699 
        1668   0.97999623  0.042600676 
        1669   0.99335443 -0.085433539 
        1670   0.97905323  0.036374742 
        1671     1.008184 -0.066360708 
        1672    1.0152051  0.010555849 
        1673    1.0105532 0.00014289185 
        1674   0.97716141  0.051165546 
        1675    1.0118773   0.11913404 
        1676   0.99681451 0.0008977665 
        1677   0.99756385 -0.066346463 
        1678   0.94686509  0.058778509 
        1679   0.99973236   0.12636115 
        1680     1.001641  0.025584989 
        1681    1.0097991   0.04652967 
        1682    1.0196977 -0.014039447 
        1683   0.96797871 -0.025668994 
        1684   0.97505031  0.069456354 
        1685     1.024602  0.056424243 
        1686    1.0058957 -0.072855494 
        1687    1.0684105 -0.072412943 
        1688   0.98070495  -0.10351974 
        1689     1.012599  0.026583881 
        1690     1.005687  0.073450974 
        1691    1.0243483  0.017903138 
        1692    1.0185138   0.09065108 
        1693   0.99624593   0.10653744 
        1694    1.0193471  0.066870745 
        1695   0.97625059   0.11471076 
        1696   0.96094178  0.062529635 
        1697    1.0008635  0.018871525 
        1698   0.99302414   0.01927533 
        1699   0.92575056  -0.08480434 
        1700   0.98121012 -0.020450552 
        1701    1.0167923  0.093431983 
        1702    1.0659728  0.040808033 
        1703    1.0173601  0.033718051 
        1704    1.0354172  -0.04595691 
        1705    1.0355106  0.042393395 
        1706   0.98310601  0.035137943 
        1707    1.0116896  0.034433032 
        1708    1.0022819  0.041932899 
        1709    1.0070634  0.085357409 
        1710   0.94981935  0.080422767 
        1711    0.9716074  0.076662958 
        1712    1.0660877  0.058089153 
        1713   0.98668816  0.055962082 
        1714    1.0148757  0.075540841 
        1715    1.0126122   0.03526851 
        1716    1.0110426  0.072335846 
        1717    1.0119837  0.034109764 
        1718    1.0378909   0.19505825 
        1719    1.0245986    0.0249333 
        1720    1.0190858  0.055056804 
        1721   0.98356402 -0.010100445 
        1722   0.98135086  0.043882192 
        1723    1.0054843  0.013913926 
        1724    1.0228387   0.13881771 
        1725   0.99855133  0.027052247 
        1726    1.0530167   0.15671257 
        1727   0.97162632   0.06862005 
        1728    1.0182219  0.069566307 
        1729    0.9671428   0.06454513 
        1730   0.99320547 -0.029875926 
        1731    1.0064656  0.052889026 
        1732   0.99574805  0.020655385 
        1733   0.96239959   0.05096357 
        1734    1.0517405 -0.0084850198 
        1735   0.98362102  0.074164332 
        1736   0.97894272 -0.061719219 
        1737    0.9713163 -0.016526321 
        1738   0.92170199  -0.17255144 
        1739    1.0201172  0.083909811 
        1740   0.98933773 -0.073342473 
        1741    1.0350767   0.10782739 
        1742     1.012308  0.017139863 
        1743    1.0055037  0.048726121 
        1744   0.99106411 -0.061269407 
        1745    1.0310121   0.11171007 
        1746    1.0272341   0.14265688 
        1747   0.99504124 -0.065873054 
        1748   0.98197761 -0.095588095 
        1749     1.006613 -0.086145703 
        1750   0.96950383  0.028718372 
        1751   0.92860948  0.099453452 
        1752    1.0038288  0.056017902 
        1753   0.98577046 -0.034482711 
        1754   0.96734849  0.048830889 
        1755    1.0578212   0.02194669 
        1756    1.0688313  0.064659645 
        1757    1.0138596  0.076203913 
        1758   0.97414738   0.01596495 
        1759     1.039647  0.098206784 
        1760    1.0245578 0.0095615466 
        1761   0.97796981 0.0087758306 
        1762   0.94276203  0.084458088 
        1763    1.0067305  0.049017809 
        1764   0.98585905 -0.00082939672 
        1765    1.0574688 -0.051871003 
        1766   0.98610978    0.1476154 
        1767   0.99500475    0.1263439 
        1768    1.0027745  -0.01860153 
        1769    1.0229907   0.14162596 
        1770     1.009199  0.055292906 
        1771   0.99556151 0.00016502698 
        1772   0.96841307  0.080832781 
        1773    0.9956052 -0.078200344 
        1774    1.0187607  -0.05634552 
        1775   0.93819279  0.011100283 
        1776    1.0459047   0.15055387 
        1777    1.0327037 -0.016826104 
        1778    1.0068379  0.082593439 
        1779   0.98152634 -0.024875306 
        1780    0.9877161   0.19283635 
        1781     1.005039  0.017889352 
        1782    0.9913492 -0.024762537 
        1783     1.036322 -0.045723055 
        1784    1.0123344 -0.063194205 
        1785   0.98829178 -0.00054986194 
        1786    0.9899033  0.018764941 
        1787    0.9845695 -0.0020992274 
        1788   0.99291546 -0.017936992 
        1789    1.0383019  0.036649161 
        1790   0.97724066 -0.042844446 
        1791     1.019445  0.086082876 
        1792   0.98064394 -0.094453068 
        1793    1.0224776  0.056325491 
        1794   0.99509968 -0.037186032 
        1795   0.97702964  -0.11078349 
        1796    1.0254201 -0.0057899358 
        1797    1.0090928  0.078995483 
        1798    1.0056737    0.1961837 
        1799    1.0003365   0.11118035 
        1800    1.0196271 -0.030296774 
        1801    1.0175206   0.12469933 
        1802    1.0047615 -0.050571832 
        1803    1.0087525  0.016932038 
        1804    1.0019223   0.11951055 
        1805    1.0019574  0.061301411 
        1806     1.016964  0.055161917 
        1807    1.0351921 -0.027735151 
        1808    1.0018331  0.045071831 
        1809    1.0453429  0.024630656 
        1810    1.0145077 -0.030566713 
        1811   0.95915658   0.01976565 
        1812   0.96121888 -0.011505531 
        1813   0.98280482  0.064831962 
        1814   0.98503038   0.10135376 
        1815    0.9901857 -0.029716695 
        1816    1.0014102 -0.037154224 
        1817   0.99098103  0.097793206 
        1818    1.0360696 0.0024112888 
        1819    1.0125685 -0.015478055 
        1820    1.0502906  0.084453568 
        1821    1.0127381 -0.019257931 
        1822     1.048749  0.078742019 
        1823    1.0211417  0.033723263 
        1824    0.9737696  0.089728274 
        1825   0.97894902  0.033690868 
        1826   0.97154793   0.05170212 
        1827    1.0182601 0.0060472155 
        1828   0.99450042  0.049429217 
        1829     1.030192  0.089074321 
        1830    1.0546443  0.051047678 
        1831   0.99330955  -0.11392917 
        1832    1.0246336 -0.0096257587 
        1833    1.0298047  0.053309749 
        1834    0.9946931  0.015896313 
        1835    1.0032239  0.014799709 
        1836     1.024157  0.003792431 
        1837    1.0290633 0.0012793863 
        1838   0.99843518   0.13020921 
        1839    1.0123816 -0.052504446 
        1840    1.0299187 0.0017319163 
        1841    1.0141103  0.059152877 
        1842    1.0061149  0.042435139 
        1843   0.98032347  0.059273116 
        1844    1.0314275   0.16920296 
        1845   0.95309317 0.00082454858 
        1846    1.0043047 -0.045334619 
        1847    1.0200864 -0.0060529527 
        1848    1.0649758  0.076274012 
        1849    1.0104504 -0.0021533177 
        1850    1.0161269 -0.064580635 
        1851   0.96676606 -0.056539808 
        1852   0.99648134  0.088958387 
        1853   0.97474926  0.020715105 
        1854    1.0132922   0.17606656 
        1855    1.0136313 -0.0045698232 
        1856   0.99912433  0.034243744 
        1857    1.0109823   0.16665365 
        1858    0.9740205 -0.027386709 
        1859   0.95352683  0.031793443 
        1860    1.0140843  0.053255382 
        1861    1.0070895  0.039239635 
        1862    1.0060155   0.14997876 
        1863    1.0435832  0.053275631 
        1864   0.98529762   0.14940981 
        1865    1.0486263   0.10441713 
        1866   0.97199538  -0.11492929 
        1867    1.0150096 -0.050760404 
        1868   0.96634505  0.037873759 
        1869    1.0059314  0.011085111 
        1870   0.97230946 -0.054938496 
        1871   0.93491537 -0.037456424 
        1872   0.99861742  0.022518187 
        1873    1.0280637  0.043645474 
        1874    0.9634759   -0.0314506 
        1875   0.95484676   0.10735986 
        1876   0.99502535   0.11612026 
        1877    1.0125035 -0.014072451 
        1878    0.9772296   0.04225142 
        1879   0.97098312   0.10209529 
        1880    1.0145061 -0.026145995 
        1881    1.0131271  0.060876288 
        1882    1.0046792 -0.018352083 
        1883   0.99534021  0.041074119 
        1884    1.0334652  0.078974907 
        1885   0.98633479 -0.0026970748 
        1886   0.97869703 -0.068383724 
        1887     1.010825  0.058252018 
        1888    1.0387087  0.077187507 
        1889    1.0110495   0.10679324 
        1890   0.99304883   0.08228898 
        1891    1.0070937  0.093767738 
        1892   0.97553726 -0.057683686 
        1893    0.9642527  -0.19858264 
        1894   0.99035862 0.00050101858 
        1895   0.98081345  0.011155097 
        1896   0.98524815 0.0089634696 
        1897   0.99467998  0.010731724 
        1898    1.0118419    0.2003275 
        1899    1.0140238  0.077057588 
        1900   0.99966515 0.0036973154 
        1901    1.0098061  0.063294187 
        1902   0.99320837  0.018862693 
        1903   0.99709731  0.050723841 
        1904   0.98373861   0.14796267 
        1905   0.99957039   0.11667155 
        1906    1.0496139    0.1008979 
        1907   0.98494733 -0.0069741254 
        1908   0.99772304 -0.0057554951 
        1909   0.99462936  0.065877858 
        1910    1.0118383 -0.021947778 
        1911    1.0001236   0.06811556 
        1912   0.98159819  -0.07057709 
        1913   0.97216642 -0.061210525 
        1914   0.96488593   0.12247172 
        1915    1.0054589 0.0068034905 
        1916    1.0354479  0.012222911 
        1917   0.93036431 -0.023390739 
        1918   0.99358782  -0.02294152 
        1919   0.95844491 -0.076016178 
        1920   0.98441941 -0.065686519 
        1921    1.0306453 -0.0094126466 
        1922    1.0052207   0.11921938 
        1923    1.0020972  0.062962571 
        1924   0.98356444 -0.012628137 
        1925    1.0089933 -0.069237472 
        1926   0.97010054   0.17096913 
        1927     1.026483  0.017594937 
        1928   0.94430113 -0.0048072231 
        1929   0.99765171  -0.01259807 
        1930    1.0024014  0.017071196 
        1931   0.98860347 -0.084136044 
        1932   0.97936807  0.062314599 
        1933    1.0016367  -0.01129111 
        1934    1.0371616   0.16819279 
        1935   0.99867209  0.037465017 
        1936    1.0342289 0.0021332075 
        1937   0.99487545  0.066753147 
        1938   0.97396838  0.057929717 
        1939    1.0475034  0.096741154 
        1940    1.0061288  0.088561286 
        1941    1.0040194 -0.016186183 
        1942   0.98471595  0.023440863 
        1943   0.99460154  0.023116591 
        1944    1.0267115 -0.060426767 
        1945   0.96034472 -0.0093707874 
        1946   0.99517199  0.068438303 
        1947    1.0086136   0.02473299 
        1948   0.99314072  -0.05253406 
        1949   0.97954614 -0.035158458 
        1950   0.99917573  -0.04955745 
        1951    0.9799375 0.0094300884 
        1952    0.9896719 -0.0097988464 
        1953   0.98346307  0.032379382 
        1954   0.99554203  0.081166259 
        1955    1.0079286   0.13833892 
        1956   0.99383999   0.14065179 
        1957   0.96213842  0.043172626 
        1958   0.98214791   0.04702183 
        1959   0.98750218  0.093705414 
        1960    1.0136896  0.063304229 
        1961    1.0235988  0.017948975 
        1962    1.0034629  0.082959041 
        1963    1.0298639 -0.0078375589 
        1964    1.0103139  0.077575068 
        1965   0.96419623  -0.01411359 
        1966    1.0134698 -0.065685399 
        1967   0.95740507  0.047657106 
        1968    1.0313385  0.068198579 
        1969    1.0178709  0.034895097 
        1970    1.0245891 -0.036289141 
        1971    1.0079364  0.066747645 
        1972   0.96967626 -0.062991941 
        1973    1.0148788  0.020570828 
        1974   0.98589944 -0.047904646 
        1975    1.0128351  0.073633959 
        1976   0.95021101   0.15196346 
        1977   0.99127623  0.037157536 
        1978     1.032983  0.076646729 
        1979    1.0379322  0.067274295 
        1980   0.99900138 0.0088087894 
        1981    1.0190565  0.046580407 
        1982   0.96067311 -0.024642724 
        1983    1.0134774 -0.064124213 
        1984    0.9959698  0.057011725 
        1985   0.98179246 -0.047993411 
        1986    1.0023015  -0.02042469 
        1987    1.0042394  0.016093419 
        1988    1.0006089 0.0044179104 
        1989   0.99775009 -0.037958124 
        1990    1.0096355  0.029294915 
        1991    1.0370933 -0.037225784 
        1992   0.98935485   0.01783219 
        1993    1.0012088 -0.075332129 
        1994     1.017543  0.032248453 
        1995    0.9597572  0.090901077 
        1996    0.9697433   0.12162631 
        1997    1.0157228  0.050468398 
        1998    1.0019014  0.036684389 
        1999    1.0348582 -0.014307313 
        2000    1.0452606  0.099273557 
Loop time of 820.014 on 1 procs for 2000000 steps with 864 atoms

Performance: 210728.136 tau/day, 2438.983 timesteps/s
99.8% CPU use with 1 MPI tasks x no OpenMP threads

MPI task timing breakdown:
Section |  min time  |  avg time  |  max time  |%varavg| %total
---------------------------------------------------------------
Pair    | 720.37     | 720.37     | 720.37     |   0.0 | 87.85
Neigh   | 56.154     | 56.154     | 56.154     |   0.0 |  6.85
Comm    | 17.298     | 17.298     | 17.298     |   0.0 |  2.11
Output  | 0.020088   | 0.020088   | 0.020088   |   0.0 |  0.00
Modify  | 20.309     | 20.309     | 20.309     |   0.0 |  2.48
Other   |            | 5.861      |            |       |  0.71

Nlocal:    864 ave 864 max 864 min
Histogram: 1 0 0 0 0 0 0 0 0 0
Nghost:    2695 ave 2695 max 2695 min
Histogram: 1 0 0 0 0 0 0 0 0 0
Neighs:    33747 ave 33747 max 33747 min
Histogram: 1 0 0 0 0 0 0 0 0 0

Total # of neighbors = 33747
Ave neighs/atom = 39.059
Neighbor list builds = 53795
Dangerous builds = 0
Total wall time: 0:13:40
