LAMMPS (18 Jun 2019)
LAMMPS (18 Jun 2019)
Total wall time: 0:00:00
Reading data file ...
  orthogonal box = (0 0 0) to (20.5197 10.2599 10.2599)
  1 by 1 by 1 MPI processor grid
  reading atoms ...
  864 atoms
  reading velocities ...
  864 velocities
  read_data CPU = 0.00601792 secs
Neighbor list info ...
  update every 1 steps, delay 10 steps, check yes
  max neighbors/atom: 2000, page size: 100000
  master list distance cutoff = 3.3
  ghost atom cutoff = 3.3
  binsize = 1.65, bins = 13 7 7
  1 neighbor lists, perpetual/occasional/extra = 1 0 0
  (1) pair lj/cut, perpetual
      attributes: half, newton on
      pair build: half/bin/atomonly/newton
      stencil: half/bin/3d/newton
      bin: standard
Setting up Verlet run ...
  Unit style    : lj
  Current step  : 0
  Time step     : 0.001
LAMMPS (18 Jun 2019)
LAMMPS (18 Jun 2019)
LAMMPS (18 Jun 2019)
LAMMPS (18 Jun 2019)
LAMMPS (18 Jun 2019)
LAMMPS (18 Jun 2019)
Total wall time: 0:00:00
Total wall time: 0:00:00
Total wall time: 0:00:00
Total wall time: 0:00:00
Total wall time: 0:00:00
Total wall time: 0:00:00
Per MPI rank memory allocation (min/avg/max) = 2.8 | 2.8 | 2.8 Mbytes
Time Temp Press 
           0    0.3379911    -2.869697 
           1   0.95820783   0.44113403 
           2   0.88770477  0.010039869 
           3   0.87733862  -0.28749811 
           4   0.85908252  -0.16672584 
           5   0.86917047  -0.12876136 
           6    0.9389221  -0.12213257 
           7   0.91906985  -0.11011344 
           8   0.88191833   0.23689365 
           9   0.90931346 -0.090178185 
          10   0.89773645  0.017317072 
          11    0.9245365   0.01937089 
          12   0.94449528 -0.066553788 
          13   0.90567722 -9.3748847e-06 
          14   0.94222189 -0.016006023 
          15    0.8647121  0.035226744 
          16   0.87504804 -0.022404344 
          17   0.90914966 -0.018405828 
          18   0.90165744  0.012077077 
          19   0.86809387  -0.11319835 
          20   0.95271088 -0.034416528 
          21   0.86137799  -0.13864936 
          22   0.93608644 -0.001382823 
          23   0.89321792  0.011711487 
          24   0.93785664 -0.082652743 
          25   0.92686722  0.017515981 
          26   0.95352019 -0.0097319093 
          27   0.92076948  0.069778723 
          28   0.91737801 -0.023341976 
          29   0.86694838 -0.055616018 
          30   0.86441529  -0.09409513 
          31    0.8539683  0.089901556 
          32   0.87134355 -0.066500288 
          33   0.86299596  0.026429756 
          34   0.91983471 -0.018520835 
          35   0.90476533  0.019794246 
          36   0.88783317 -0.0023991516 
          37   0.88880909 -0.0093826564 
          38    0.8980606 -0.024335795 
          39     0.848907  0.022671369 
          40   0.89964647  0.012956361 
          41   0.89678565 -0.060222162 
          42   0.92907746 -0.048980249 
          43   0.89555936  0.055080309 
          44   0.90678248  0.082819393 
          45   0.90504911  0.066496232 
          46   0.88674841 -0.039250028 
          47   0.93305895 -0.069505569 
          48   0.89094747  0.035680945 
          49   0.88452879 -0.034602441 
          50   0.90458478 -0.054248363 
          51   0.86393163 -0.035847188 
          52   0.89424402  0.074851038 
          53   0.89029961 -0.040979438 
          54   0.90700396   0.11604388 
          55   0.91547032 -0.023993079 
          56   0.91434591 -0.023346141 
          57    0.8803011   0.14845175 
          58   0.93380033   0.02306303 
          59   0.83814726 0.00091208764 
          60   0.89254733 -0.087998492 
          61   0.86321118 -0.099408154 
          62   0.92981894    0.1140944 
          63   0.90395905  0.016320275 
          64   0.92118802 -0.0087457619 
          65   0.88595522   0.05466102 
          66   0.89047713  0.086232568 
          67   0.93060783 -0.045845671 
          68   0.89014143  0.040341726 
          69   0.89767009  0.043693009 
          70   0.92233932 -0.0071170284 
          71   0.87476499 -0.068212384 
          72   0.89869304 -0.084076044 
          73   0.90210032 -0.085414689 
          74   0.89491904  0.022930467 
          75   0.88789249  0.058622901 
          76   0.89736732 -0.048176746 
          77    0.8958969 -0.0017666202 
          78   0.94119421  0.044475874 
          79   0.87593086  0.079886936 
          80   0.92083062  -0.03551615 
          81   0.87443822  -0.10801815 
          82    0.9160233   -0.0108162 
          83   0.87664153 0.0071023184 
          84   0.91475742 -0.015157455 
          85   0.86522988 -0.055823562 
          86   0.87783317 -0.059586432 
          87   0.86531477  0.012988201 
          88   0.84532001 -0.084123846 
          89   0.92231572 -0.0051635466 
          90   0.89547987  0.067913355 
          91   0.93807115 -0.041445179 
          92   0.95319604 -0.032935307 
          93   0.91352956 -0.0042435044 
          94   0.91751391   0.14551511 
          95   0.89317225  0.018905555 
          96   0.94318635  0.040460143 
          97   0.93492306 -0.079171453 
          98   0.87142313  0.026667911 
          99   0.91122165  -0.16247492 
         100   0.90022469  0.043145433 
         101   0.93036194 -0.032952749 
         102   0.88092072  0.062017407 
         103   0.89061109 -0.070706055 
         104   0.91639755 -0.021132054 
         105    0.9032435 -0.084969293 
         106   0.90183306  0.095535741 
         107   0.90041805  0.077422452 
         108   0.86878067 0.0051906719 
         109   0.87903439 -0.047379882 
         110   0.92100747 -0.025593875 
         111   0.90585137 -0.097678919 
         112   0.87780185 -0.064889281 
         113   0.89344655 -0.019813915 
         114   0.88157941  -0.10810559 
         115   0.88469943  -0.09164398 
         116   0.90027103 -0.029209529 
         117   0.89315654 -0.053244251 
         118   0.90442507 -0.039436526 
         119   0.88723185  0.029648386 
         120   0.90291907   0.11501257 
         121   0.90085143  0.081455975 
         122   0.89198927 -0.0024615349 
         123   0.88595513 -0.089709062 
         124   0.89426393  -0.08735573 
         125   0.94141021 -0.024411279 
         126   0.90086789  0.099858715 
         127   0.89567241 -0.018240844 
         128   0.92852744  -0.13738895 
         129   0.93283916  -0.13888135 
         130   0.89029871 -0.069265034 
         131   0.84289489 -0.034122781 
         132    0.9019392 -0.0064438196 
         133   0.94345162  0.089627611 
         134    0.8777087 -0.006996899 
         135   0.91307343  0.084034108 
         136   0.89284268 -0.030115917 
         137   0.92345746 -0.038440234 
         138   0.85051335  -0.11541623 
         139   0.89516595 0.0072554644 
         140   0.93085109 -0.090870158 
         141   0.92654736 -0.00091483845 
         142   0.86909521  0.020626297 
         143    0.9321366 0.0022470004 
         144    0.9144795  0.035615052 
         145   0.90516583 -0.066811807 
         146   0.92999865 -0.014678957 
         147    0.9304257    -0.138066 
         148   0.92115341 -0.025745831 
         149    0.9184049 -0.014645347 
         150   0.90024929 -0.045996431 
         151   0.93898489  0.022921638 
         152   0.86275809   0.10056007 
         153    0.8835073 -0.083078503 
         154     0.859123 -0.037063566 
         155   0.89443895  0.042680159 
         156   0.89517944 -0.041695079 
         157   0.88303648  -0.07258096 
         158   0.90376027 -0.0053470165 
         159   0.89932632 -0.042957348 
         160   0.89246954 -0.050253498 
         161   0.89754775  -0.12786225 
         162   0.91097394 0.0071429388 
         163   0.88814916  0.093254236 
         164   0.87803532 -0.057613945 
         165   0.92501559 0.0085056497 
         166   0.92729001 -0.021405909 
         167   0.93020834 -0.054703291 
         168   0.88473356  -0.10517868 
         169   0.85352001 -0.037203912 
         170    0.8528054  0.022399582 
         171   0.84897888  -0.17504044 
         172   0.89928861 -0.068286384 
         173   0.92015367  0.034813874 
         174   0.97152206 -0.0030612821 
         175   0.93560592 -0.010462053 
         176   0.88267013 -0.068760519 
         177   0.90709139  0.028754035 
         178   0.90352783 -0.032434519 
         179   0.89401436 -0.095618476 
         180   0.89518786   0.02470728 
         181   0.90341025   0.07054101 
         182    0.8650857 -0.0096039492 
         183   0.87376449 -0.049411574 
         184   0.90791406  0.064605846 
         185   0.88795481 -0.088742367 
         186   0.89141126  -0.18840035 
         187   0.87424912  0.040408567 
         188   0.89023581  0.091164402 
         189   0.92287535  0.039401059 
         190   0.91291368  -0.07742463 
         191   0.87752957 -0.057065243 
         192    0.8847352 -0.096821413 
         193   0.90659904  -0.05649605 
         194   0.91080918  0.025168301 
         195    0.9126137   0.02548684 
         196    0.8572376  0.048791807 
         197   0.86644982 -0.0011766058 
         198   0.95251321 0.0060050445 
         199    0.9062503 0.0058319854 
         200   0.93317132 0.0058393709 
         201   0.88349286  0.022756875 
         202   0.88759503  -0.15849365 
         203   0.91153699   0.09095225 
         204   0.89830144   0.11500793 
         205   0.91808176 -0.047578787 
         206   0.86617933 -0.024078159 
         207   0.89476931  -0.12119978 
         208   0.89632273 -0.064388507 
         209   0.90760983  0.066487133 
         210   0.89142615  0.096217849 
         211   0.85746163  0.041321686 
         212   0.88844005  -0.12120447 
         213   0.88780644   0.01937902 
         214   0.92182844  -0.10522941 
         215   0.87357919 -0.006676024 
         216   0.89868059  0.031187957 
         217   0.89598745  -0.02175147 
         218   0.93212126 -0.032285678 
         219   0.90766671 -0.018935352 
         220   0.94090007 -0.048786859 
         221    0.9127154  -0.14415709 
         222   0.94182121  -0.03813322 
         223   0.91000591 0.0066773669 
         224   0.92619491  0.055718021 
         225   0.90080349  0.076964062 
         226   0.91539274 -0.043376927 
         227   0.86000988 -0.075128556 
         228   0.91423591  0.032828416 
         229   0.93348839 -0.045133932 
         230   0.88481746 -0.056215633 
         231   0.89572338   0.08302826 
         232   0.90302498 -0.065764657 
         233   0.91330452 -0.048904706 
         234   0.92174665  0.046106241 
         235   0.89296285  0.050887755 
         236   0.90234112  0.068221729 
         237   0.89458669 -0.0084309715 
         238   0.91797151  -0.08320487 
         239   0.88003157 -0.036960065 
         240   0.88484189 -0.093487847 
         241   0.89111559  0.042271034 
         242   0.92529529   0.13815775 
         243   0.85488949 -0.077258883 
         244   0.89555585   -0.1032898 
         245   0.90797238  -0.13542218 
         246   0.87707913  0.034783497 
         247   0.89129996 -0.033232841 
         248    0.9337308 -0.0032316681 
         249   0.90320554  0.025211888 
         250   0.90833726 -0.050497315 
         251   0.89169408 -0.060655571 
         252   0.92859535 -0.066836061 
         253   0.94539859  0.042404611 
         254   0.91765384 0.00032314362 
         255   0.88370863   0.09814445 
         256   0.89689918   0.10293686 
         257   0.89377037   0.15455769 
         258    0.9580131 -0.079500259 
         259    0.9649084   0.08469201 
         260   0.92993927 0.0051138992 
         261   0.84998183  -0.12625174 
         262   0.95975601  0.078941231 
         263   0.87403929 -0.078310256 
         264   0.86887523  0.093372988 
         265   0.91059006 -0.025180061 
         266   0.86765937  0.039632831 
         267    0.8988514  0.013417058 
         268   0.86322918 -0.021737855 
         269   0.87780356 -0.043959341 
         270   0.90634704  -0.10058933 
         271   0.91925028  0.045759988 
         272   0.89402672  0.027281928 
         273   0.92542977  -0.13918788 
         274   0.92562048 -0.099045844 
         275   0.92153888   0.04448626 
         276   0.89700057 -0.086012346 
         277    0.8899414  0.054458272 
         278   0.91168183 -0.0075089732 
         279   0.90727018 0.0010642487 
         280   0.90019777  0.020816899 
         281   0.93286944 -0.045361547 
         282   0.85974046  0.044103638 
         283   0.87545506  0.053181523 
         284   0.90449058  0.005628125 
         285    0.8996138   0.11601569 
         286   0.89554168  0.029858739 
         287   0.87228316 -0.051766794 
         288   0.94011395  0.032331344 
         289   0.90955229 -0.080199104 
         290   0.88774588 -0.033321164 
         291   0.93975874 -0.015818512 
         292   0.91264111 -0.067558159 
         293   0.86680993 -0.072034443 
         294   0.87539734  -0.10535367 
         295    0.8828886 -0.0069894292 
         296   0.90618261 -0.0056659537 
         297   0.92747851  0.051365543 
         298   0.86059019  -0.13374557 
         299   0.88361383  0.094667341 
         300   0.88261877  0.031999029 
         301   0.89516725 -0.014469101 
         302   0.88061407 -0.071162764 
         303   0.90395767  0.039266501 
         304   0.91468731 -0.030192703 
         305    0.9137991  -0.12992409 
         306   0.89865324  0.010820185 
         307   0.88066653  -0.13483752 
         308   0.92084843  0.010526627 
         309   0.89315849 -0.0015826425 
         310   0.91696732 -0.032025142 
         311   0.92263286 -0.0062403142 
         312    0.9051313 -0.072726233 
         313   0.89549277  0.028730992 
         314   0.88367021   0.12106284 
         315   0.89627343 -0.010631851 
         316   0.90896197  0.013609674 
         317   0.82944525 -0.026240103 
         318   0.91021976  0.037902904 
         319   0.88559503 -0.089991835 
         320   0.88189249 0.0058866876 
         321   0.87888445 -0.073658999 
         322   0.90766732   0.01312035 
         323   0.89810502 -0.061433769 
         324   0.87986219  0.011725441 
         325   0.91341536 -0.084405919 
         326   0.86638225 -0.050035873 
         327   0.88437885 -0.093383518 
         328   0.87211227 0.0067391591 
         329    0.8921951  0.081056677 
         330    0.8966396 -0.033389087 
         331   0.89099522 -0.063504521 
         332   0.95093398  0.092047913 
         333   0.90342974   0.13328549 
         334   0.89219649   0.11919441 
         335    0.9148796  0.020558103 
         336    0.9157243  0.053759554 
         337   0.93916891 -0.048017327 
         338   0.86071111  0.030483076 
         339   0.92715288  0.051904018 
         340   0.89963737  -0.02001592 
         341   0.92229712 -0.039528003 
         342   0.88825056 -0.023508412 
         343   0.88889216  -0.13824542 
         344   0.89732581 -0.055082201 
         345   0.91706346 -0.086183332 
         346   0.85160866 -0.019601049 
         347   0.91257688 0.0089003894 
         348   0.89639969  0.075008514 
         349   0.93334405   0.03232554 
         350   0.87797639 -0.019468667 
         351   0.87172425 0.0043542892 
         352   0.90756837   0.04957922 
         353   0.89312367  0.032736865 
         354   0.83407935  0.022114727 
         355   0.91085732 -0.0059750609 
         356   0.90261172  0.013458966 
         357   0.87407555 -0.076410768 
         358   0.88943458  0.019480346 
         359      0.87418  0.014917031 
         360    0.8951494  -0.10561148 
         361   0.89899358  0.093073677 
         362   0.91169072 -0.031238847 
         363   0.88808232   0.09962023 
         364   0.86661724  -0.19632425 
         365   0.86579496  0.017727637 
         366   0.87192877 -0.080816052 
         367   0.88192983 -0.072763867 
         368   0.94161856  0.028542227 
         369   0.86361758   0.07862489 
         370   0.90107091  0.069708314 
         371   0.87167901 -0.018989342 
         372   0.92061287 0.0025917966 
         373   0.88625685  -0.16726801 
         374    0.9228421   0.11578887 
         375   0.87119838 -0.076384201 
         376   0.90147485  -0.13767289 
         377   0.87246354 0.0050902431 
         378   0.89272856 -0.012796877 
         379   0.90816264  0.023154668 
         380   0.88112054 -0.039475036 
         381   0.89379894 -0.048592184 
         382   0.87942876  -0.11188712 
         383    0.8885316 -0.074182316 
         384    0.8499921  0.068699927 
         385   0.89621652 -0.037943156 
         386   0.92620535  0.028596288 
         387   0.90188377  0.047820973 
         388   0.89786501   0.11032377 
         389   0.89632022  0.017970303 
         390   0.94424054  0.086039404 
         391   0.88955361 -0.024476522 
         392   0.91270184  0.015363156 
         393   0.92166882 -0.021017331 
         394   0.92930506 -0.070216113 
         395   0.92812864  0.045369637 
         396    0.8927448  0.094129305 
         397   0.93550304  0.018204883 
         398   0.91364222  0.037587287 
         399   0.90283539   0.10242069 
         400   0.87288151  0.092767799 
         401   0.89667615  0.073031801 
         402   0.90342888  0.078519199 
         403   0.91675059  0.012910975 
         404   0.91840862 -0.085364979 
         405   0.89263058  0.037136492 
         406   0.88410107 -0.037778619 
         407   0.88772973  -0.14067468 
         408   0.87935087 0.0086087542 
         409   0.91875697   0.10740153 
         410   0.92216817  0.044749133 
         411   0.88582664   0.13522549 
         412   0.90705395    0.1116338 
         413    0.8780017 -0.061014863 
         414   0.84080135 -0.060585604 
         415   0.89923384 -0.029639436 
         416   0.86621079  0.069399915 
         417   0.86664552  0.001717587 
         418   0.89623664 -0.059373042 
         419   0.86032681 -0.023281073 
         420   0.92393816 -0.074847225 
         421   0.90936033 -0.057010053 
         422   0.87259287 -0.074972496 
         423   0.91455151 -0.078867952 
         424   0.91901378 -0.066361276 
         425   0.88178231 0.0011904686 
         426   0.92011041  -0.03736479 
         427   0.82970886    0.1014726 
         428   0.90308401  0.044126271 
         429   0.89875607 0.0076890469 
         430   0.88016302 -0.034556439 
         431   0.91484175 -0.069113037 
         432   0.90909741 -0.022544647 
         433   0.91272643 -0.034029015 
         434   0.90838237 -0.0019401338 
         435   0.90922513  0.045686389 
         436   0.87043743 -0.014202864 
         437   0.91487837   0.01891863 
         438   0.89824019 -0.0090338326 
         439    0.8943692  -0.05120848 
         440   0.87386438 0.0018588392 
         441   0.87844137  -0.07918092 
         442   0.88487562  0.025345024 
         443   0.89405546  0.016536138 
         444   0.89224597 0.0014584893 
         445   0.89974007 -0.061661224 
         446   0.95768512  -0.15903326 
         447   0.91444918 -0.045556402 
         448   0.93364691  0.025849837 
         449   0.89578917  0.073335464 
         450   0.88679915  0.090455067 
         451    0.8835416 -0.053796181 
         452   0.89982383 -0.0065057795 
         453   0.89889206 -0.051537791 
         454   0.90516353  0.093757582 
         455   0.87261714 -0.026014475 
         456   0.89976888 -0.073386284 
         457     0.898437 -0.041806418 
         458    0.9110718   0.12790293 
         459   0.93602221  0.067226633 
         460   0.95181385 -0.040940239 
         461   0.88292415 -0.068031843 
         462   0.93735438 -0.013929931 
         463   0.87454411 -0.046294155 
         464   0.87736248 -0.072417152 
         465   0.91311631 -0.019273479 
         466   0.96808641  0.033217809 
         467   0.89603492  0.092141832 
         468   0.92371465 -0.057323465 
         469   0.91863218  0.042863785 
         470   0.88566658 -0.033045053 
         471   0.92836549   -0.1489592 
         472   0.93796439  0.077250775 
         473   0.90003688  -0.13530174 
         474   0.89285708 -0.028523919 
         475   0.85686829  -0.03251525 
         476   0.90173676  0.049566405 
         477   0.89176108 -0.088914893 
         478   0.87395922  0.076788913 
         479   0.93906791  -0.13813736 
         480   0.93656264  0.058951416 
         481   0.90880989  -0.15113418 
         482   0.90003722 -0.031270085 
         483   0.95982866  0.029907311 
         484    0.9168561 -0.038923452 
         485   0.95136287 -0.081241791 
         486   0.92145156 -0.067493743 
         487    0.9117081 -0.019512147 
         488   0.88089669  -0.07953949 
         489   0.94177378  0.047553199 
         490   0.89344228  0.031572584 
         491   0.88544795    0.1471206 
         492   0.94562681 -0.040581048 
         493   0.91110296 -0.083718796 
         494   0.92013758 -0.040437761 
         495   0.91825581  0.064086701 
         496   0.85595693 -0.081926378 
         497   0.91634019 0.0031177148 
         498   0.90025423  -0.11780394 
         499   0.94628533 -0.0042815486 
         500   0.90579178 -0.022561328 
         501   0.87119433  0.079131076 
         502   0.88464155  0.077091195 
         503   0.86170625 -0.020574041 
         504   0.88419277 -0.060824958 
         505   0.90024379 -0.019992733 
         506   0.90922899  0.067680806 
         507   0.88098733 -0.084424419 
         508    0.9010342 -0.055798251 
         509   0.89676922  0.051425684 
         510   0.86184892   -0.1189073 
         511    0.9123217 -0.093675743 
         512   0.96812703 -0.088161787 
         513   0.92585714 -0.073948255 
         514   0.92436157   0.01892819 
         515   0.88971902   0.04774031 
         516   0.90340777  0.036132992 
         517   0.85983525  0.013047025 
         518    0.9073987   0.12732941 
         519   0.84653603  -0.12408906 
         520   0.87201476  0.055430723 
         521   0.87247879   0.09626001 
         522    0.8753809  -0.10156746 
         523   0.86166085  -0.11875141 
         524   0.90785012   -0.2237352 
         525   0.89706614  0.036817903 
         526   0.90838249   0.14270056 
         527   0.85656216  0.079851226 
         528   0.88550401  0.080804985 
         529    0.8855724  -0.02784026 
         530   0.88653305 -0.052634849 
         531    0.8628848 -0.046802599 
         532   0.94319049  0.046647317 
         533   0.90800988  -0.02897886 
         534   0.88436266 -0.028592825 
         535    0.9055464   0.10416813 
         536   0.96660562  0.052845739 
         537   0.88056027  0.014736704 
         538   0.90954542  0.056782755 
         539   0.88798119  -0.11955271 
         540   0.91340591 -0.031099718 
         541   0.89953402 -0.015504795 
         542   0.85246067   -0.1066951 
         543    0.8674877  0.050684005 
         544   0.91850042   0.13138261 
         545   0.89864091 -0.0097171486 
         546   0.90266935 0.0017797937 
         547   0.90550376  0.034944378 
         548   0.86034933 -0.052618729 
         549   0.90748694 -0.066598317 
         550   0.85522734 -0.063736243 
         551   0.88211541    0.1014641 
         552   0.94367871  0.001416217 
         553   0.86765065  0.040454048 
         554   0.89138908 -0.026316891 
         555   0.91775224  0.044132364 
         556   0.90545003 -0.061211924 
         557   0.90641925  0.046937123 
         558   0.89933772   0.13138879 
         559     0.902992 0.0019984639 
         560    0.8771077 0.0039659437 
         561   0.90896633 0.0011879043 
         562   0.93228207  0.091016186 
         563   0.90753622 -0.091604157 
         564   0.91097469 -0.059370925 
         565   0.94474428  0.053432143 
         566   0.89778189   0.12856188 
         567   0.87607835 0.0039791335 
         568   0.91528879 -0.050833322 
         569   0.92233661  0.023220472 
         570   0.87150383 -0.010675025 
         571   0.89195204  -0.12780684 
         572   0.87634058 -0.074577001 
         573   0.86139443  0.051972977 
         574   0.87240937 -0.013239752 
         575   0.90888441  0.062651514 
         576   0.92903881 -0.031365353 
         577   0.87096457 -0.052358574 
         578   0.89361061 -0.013294359 
         579   0.87638046 -0.058828299 
         580   0.89545062 -0.013824656 
         581    0.8977228   0.11425529 
         582    0.8732099 -0.0044172044 
         583    0.9004776  0.076052124 
         584   0.89443009 0.0029871341 
         585   0.89880776 -0.047192009 
         586   0.88650177  0.071332145 
         587   0.88068031 -0.023645605 
         588   0.90209593 -0.021173461 
         589   0.93676025  0.028335536 
         590   0.91353325 -0.097228928 
         591   0.94348492 -0.040660381 
         592   0.89289642 -0.012181723 
         593   0.91088411  0.010825593 
         594   0.89404902   0.15407686 
         595   0.87628627  0.074211824 
         596   0.91378216  -0.01336744 
         597   0.91543279 -0.068014038 
         598   0.92960374  0.010363348 
         599   0.90808474 -0.010019592 
         600   0.89268349  0.042084278 
         601   0.91276227 -0.074097413 
         602   0.93614616  -0.13556306 
         603   0.89618182 -0.099278185 
         604   0.88155719 -0.044562587 
         605    0.9225912  -0.10109747 
         606   0.89338599 9.1945605e-07 
         607   0.91838108 -0.083006716 
         608   0.88624094 -0.0029446663 
         609   0.89944338 -0.039199046 
         610   0.86741602   0.10711678 
         611   0.90666772  0.057947292 
         612   0.88262931  -0.08935232 
         613   0.92177596  0.024091394 
         614   0.91920564 0.0054633184 
         615   0.90077183 -0.097367693 
         616   0.88060821 -0.078680025 
         617   0.87552214  -0.11225544 
         618    0.9300247   0.15444464 
         619   0.92747096  -0.10255686 
         620   0.95538791   0.01208511 
         621   0.90068856 -0.095961949 
         622   0.92181605 -0.010904986 
         623   0.89842867  0.023506997 
         624   0.89330374  0.079457808 
         625   0.91656139  0.054815414 
         626    0.8861842 -0.018770983 
         627   0.88474423  0.053230267 
         628   0.92593759 -0.081001811 
         629   0.92655845  0.038478215 
         630   0.90726513 -0.044188371 
         631   0.89162554 -0.0021710575 
         632     0.929437 0.0056333324 
         633   0.87252138   0.01786186 
         634   0.95701687  0.019169541 
         635   0.88319492  -0.18355624 
         636   0.90344113 -0.035018798 
         637   0.88886779 -0.096800351 
         638     0.900653 -0.072736895 
         639   0.94593349   0.04045992 
         640   0.89519128 -0.092466235 
         641   0.93633022   0.04432138 
         642    0.8836827  0.014913662 
         643   0.89690599 -0.042640817 
         644   0.90825349   0.12862185 
         645   0.90341638  0.070279933 
         646   0.90783672  0.039581377 
         647   0.86012053 -0.093198024 
         648   0.90586725   0.10480297 
         649   0.92059609 -0.043283341 
         650   0.92829026  0.039949935 
         651   0.93807617 -0.060172435 
         652   0.91005669  -0.07401261 
         653   0.88509693   0.12392897 
         654   0.91931613   0.13968506 
         655   0.92278528 -0.010288162 
         656   0.93127074  0.098212352 
         657   0.90946004 -0.060074849 
         658   0.90981786 0.0093613806 
         659   0.87931411 0.00089213415 
         660   0.86906007 -0.016580606 
         661   0.89658836 -0.0036319394 
         662   0.90873415  0.088120116 
         663   0.88695805 -0.081993524 
         664   0.88706563  -0.15747253 
         665   0.93424457 -0.069945229 
         666   0.81964435  0.065866788 
         667   0.88064775 -0.064437387 
         668   0.88615737 -0.028683566 
         669   0.87856361  0.086393733 
         670   0.89226782 -0.044865981 
         671   0.90649669   0.10130792 
         672   0.91336415 -0.085939133 
         673   0.93583307    0.0251136 
         674   0.84685503 -0.0056564786 
         675   0.90269365 -0.016085943 
         676   0.91152367 -0.032748804 
         677   0.91364383  0.058003632 
         678    0.9009859 -0.046232874 
         679   0.91927832  0.067144625 
         680   0.89698995 -0.041808471 
         681   0.89487172 -0.0076873313 
         682   0.92863307  0.023682585 
         683   0.88720763 0.0052222137 
         684   0.88355113 -0.073849133 
         685   0.88232793  -0.06857225 
         686   0.91986164 -0.056196631 
         687   0.90811986 -0.082315009 
         688    0.8716373  0.035137806 
         689   0.89687318  0.032259794 
         690   0.91583006  0.034766292 
         691   0.89662026 -0.059587382 
         692   0.89548827 -0.056558731 
         693   0.90680831  0.050305244 
         694   0.89675432 -0.013289728 
         695   0.86513635   0.03184184 
         696    0.8969456 -0.0015067523 
         697   0.92117224 -0.00054179234 
         698   0.88333731 -0.088968205 
         699   0.90264577  0.063482963 
         700   0.93570572  0.078833145 
         701   0.89282745 -0.044312281 
         702   0.94429122 0.0030904428 
         703   0.88526879  -0.04513047 
         704   0.90018122  0.029972496 
         705   0.91278697  0.012836745 
         706    0.9042115  0.024907126 
         707   0.84318551  -0.15219489 
         708   0.88317142  0.060277772 
         709   0.90254058  0.083845455 
         710   0.86879423  0.022165785 
         711   0.87377031  0.034829881 
         712   0.86939718 -0.023573465 
         713   0.89948483  -0.13579932 
         714   0.91906417 0.0041552818 
         715   0.89496709 -0.012299524 
         716   0.88830086 -0.035428893 
         717   0.89439512 -0.037764609 
         718   0.87302223 -0.072071045 
         719   0.88284453 -0.013276018 
         720   0.89775995  -0.04964951 
         721   0.86846854 -0.066878787 
         722   0.90593795 -0.048493526 
         723    0.9133911 -0.0022789791 
         724   0.89392427 0.0095776054 
         725   0.87107104 -0.071328037 
         726   0.88947182  -0.10385687 
         727   0.89488749   0.13078548 
         728   0.85692355  -0.10827296 
         729   0.87168331  -0.05022013 
         730   0.91910227  0.074877887 
         731   0.88352273  0.026519811 
         732   0.86984394 -0.0078466148 
         733   0.86086958  0.038803444 
         734   0.88531201 -0.037936454 
         735   0.86463278 -0.0078729818 
         736   0.87166254  0.063595193 
         737    0.9225986 -0.011431189 
         738   0.90591034 -0.033799209 
         739   0.94459349  0.013233432 
         740   0.95578872  -0.04409007 
         741   0.91757672   0.12982609 
         742   0.88672752  0.003686696 
         743   0.90023779   0.04433612 
         744   0.89570933  0.006813258 
         745   0.93378219 -0.048009567 
         746   0.94509637  0.021615709 
         747   0.91318304 -0.051392149 
         748   0.92128039 -0.015381429 
         749   0.87095394  0.058962935 
         750   0.94354725  -0.03537908 
         751   0.89934525 -0.084997179 
         752   0.85345712  0.067959223 
         753   0.91731673 -0.066247176 
         754   0.97251084  0.085218135 
         755   0.91709683 0.0017173978 
         756   0.89328121   0.12600239 
         757   0.88908457 -0.034947009 
         758    0.8904554 -0.099137452 
         759   0.91164818  0.024879418 
         760   0.87165132  -0.14882167 
         761   0.91125764  0.026534851 
         762   0.87687685 -0.002105647 
         763   0.91146542  0.099154031 
         764   0.90913518 -0.037163569 
         765   0.88265384 -0.081629954 
         766   0.91604515  0.036151683 
         767   0.92743382  0.064509897 
         768    0.9004165   0.12314597 
         769   0.87092212  -0.05948485 
         770   0.85302079  0.091542993 
         771   0.88184052  -0.15579721 
         772   0.90788179 -0.014858146 
         773   0.91173635 -0.075879398 
         774   0.90737156 0.0029243728 
         775   0.91616605  0.066663246 
         776   0.88772321 -0.036792113 
         777   0.89459057 -0.025089826 
         778   0.93783861  0.076344075 
         779   0.89397549 -0.024151629 
         780   0.89741264   0.10954375 
         781   0.91835094  -0.11779162 
         782   0.90234905 -0.029483421 
         783   0.93692826  0.027723826 
         784   0.94287541 -0.0068590148 
         785   0.92153911 -0.064123032 
         786   0.90281066 -0.015623547 
         787   0.91645058  0.069423585 
         788   0.91661763  0.051477248 
         789   0.90251013 -0.0027795331 
         790   0.88008847 0.0054803829 
         791   0.89009478 -0.011539781 
         792   0.87089324 -0.018521559 
         793   0.89735317  0.078083563 
         794   0.87783449 -0.087571472 
         795   0.87597136 -0.069616013 
         796   0.91925313   -0.1178727 
         797   0.90129756 -0.096688032 
         798   0.92353094 -0.022167866 
         799   0.89007104  0.019903591 
         800   0.90145077   0.10576945 
         801   0.89622089   0.21149757 
         802   0.88109385  0.030712407 
         803    0.8767014  0.007240226 
         804   0.85352584 -0.085113887 
         805   0.90809675  0.077481037 
         806   0.89963774  0.094875963 
         807   0.92709674 -0.044959056 
         808   0.92033919  0.079125917 
         809   0.90094605   -0.1084266 
         810   0.85836619 -0.023273547 
         811   0.90962593  0.018152416 
         812     0.886442 -0.074275253 
         813    0.8596429  0.071374811 
         814   0.90331232  0.055528675 
         815   0.90113752     0.158105 
         816   0.89658767  -0.23849888 
         817   0.90478052 -0.088943155 
         818   0.90579654  -0.10439277 
         819   0.87949048 -0.054257941 
         820   0.87813195   0.17806204 
         821   0.89364473  0.022918649 
         822   0.88788115 -0.017126199 
         823   0.91610484   0.13596674 
         824    0.9004171  0.085929801 
         825   0.88428488 -0.056218337 
         826   0.90583637  0.036950096 
         827    0.9199908 -0.026791069 
         828   0.92154735  0.041475095 
         829   0.94009142 -0.0072550163 
         830   0.97883955  0.012136902 
         831   0.88920667   0.04255454 
         832   0.88433469 -0.052601397 
         833   0.92292074 -0.058767042 
         834     0.897387  0.041818288 
         835   0.92663708    0.1094617 
         836   0.90628113 -0.015328433 
         837   0.93256003  0.057967337 
         838   0.88786842 -0.039861026 
         839   0.92381119  0.028710148 
         840   0.87988532   -0.1557315 
         841    0.9041066 -0.083630262 
         842   0.93319585 -0.036949987 
         843   0.93861203  0.021528851 
         844    0.9140422 0.00024976356 
         845   0.90694068    0.0686632 
         846   0.90206697 -0.089054051 
         847   0.88461902   0.01451602 
         848   0.89192627 -0.062811987 
         849   0.89491477 -0.027769646 
         850   0.93170667  0.063193939 
         851   0.86667247  0.052123727 
         852   0.91417965  0.035012555 
         853   0.91148067   0.11354357 
         854   0.93348011  0.003542682 
         855   0.90590976  0.049224933 
         856   0.90026223  -0.01783174 
         857   0.90429627 -0.033981408 
         858    0.9242894 -0.031193428 
         859   0.88406623 -0.090166202 
         860   0.94987604  0.050991245 
         861   0.92419361  0.035291017 
         862   0.86901564  0.059909878 
         863   0.94935102 -0.029154014 
         864    0.8952505 -0.035278662 
         865   0.92488698  0.013714671 
         866   0.92350208  0.038118612 
         867   0.91492251  0.062672155 
         868   0.93761382   0.14454366 
         869   0.89691246  -0.13616426 
         870      0.87406  0.018912987 
         871   0.84477358 -0.015438531 
         872   0.89999856 -0.056707146 
         873   0.89235852  0.096799551 
         874   0.92677138 -0.094423572 
         875   0.92726821  0.044586586 
         876   0.92438996  -0.02512791 
         877   0.89312352 -0.057629637 
         878   0.93250268  0.099654162 
         879   0.87495131 -0.057299935 
         880   0.90476928  -0.10112528 
         881    0.9075327  0.026467461 
         882    0.9092149 -0.034815608 
         883   0.88660605 -0.0022513221 
         884   0.91601063   0.11389927 
         885   0.82617704  0.060679913 
         886    0.9245498  0.018107691 
         887   0.88977324  0.019157409 
         888   0.89235046 -0.079826605 
         889    0.8278124  0.075464603 
         890   0.87387216   0.11545446 
         891    0.8787406 -0.068972098 
         892   0.91681428 -0.0018045474 
         893    0.9167079   0.03736692 
         894    0.9165582 -0.076064648 
         895   0.89497471  0.030364212 
         896   0.86640253  0.026314433 
         897   0.89809895 -0.0016938933 
         898     0.893152 -0.0067963372 
         899   0.88038858  0.002735461 
         900   0.91893219  0.070040213 
         901   0.87403284  -0.10351014 
         902   0.91584303  0.070000879 
         903   0.88299496 -0.0072088095 
         904   0.93638067  0.026004346 
         905   0.91565288 -0.018325632 
         906   0.85896658 -0.075502131 
         907   0.90772118 -0.0072362689 
         908   0.87699141  -0.15602625 
         909   0.89094164 -0.083577993 
         910   0.88625097  0.014230477 
         911    0.8695133  0.061679898 
         912   0.88630719 -0.004216292 
         913   0.91065111  0.056356726 
         914   0.90733446 -0.0012724129 
         915   0.89126758 -0.031876421 
         916   0.92841989 0.0088323788 
         917   0.87625618  0.053718579 
         918    0.9140284  0.014877132 
         919   0.92028777 -0.051273858 
         920    0.9405122  0.083841494 
         921    0.9043827 0.0077733214 
         922   0.90333843 -0.019394224 
         923   0.89282465   0.10045271 
         924   0.88761306  0.035357889 
         925   0.91443219 0.00084499685 
         926   0.86825105  0.038815769 
         927   0.91593292  0.016625428 
         928   0.95523162 -0.0029559502 
         929   0.87994984 -0.0021035475 
         930   0.91363143   -0.1394582 
         931   0.89100128  -0.03158132 
         932     0.873692 -0.046965347 
         933   0.89327679 -0.080568763 
         934   0.92578564 -0.071323371 
         935   0.84640587 -0.00019512486 
         936   0.89144209  0.010544917 
         937    0.8850046  0.050251503 
         938   0.92696533  0.093606927 
         939   0.93393134 -0.032411427 
         940   0.90568611 -0.035301381 
         941    0.9093921 -0.015555723 
         942    0.9300181 -0.099870349 
         943   0.88026513  -0.01959238 
         944   0.90816026 -0.0079612831 
         945   0.85361592  0.001477899 
         946   0.89021698 -0.052635602 
         947   0.86636359 -0.035574541 
         948   0.90601575 -0.00041962592 
         949   0.88723942  -0.13087143 
         950   0.91869305 -0.091493448 
         951   0.92335932  -0.10252847 
         952   0.88914674  0.025493143 
         953   0.88518935 -0.012469629 
         954   0.89769419 -0.019429907 
         955   0.87523236  0.029640985 
         956    0.8860887 -0.075223353 
         957   0.92772032   0.02595167 
         958   0.91655939 -0.037736625 
         959   0.89084593  0.007295187 
         960   0.90636006 -0.016791965 
         961   0.88934143  0.026083742 
         962   0.88856846  0.075637333 
         963   0.88836423 -0.091981451 
         964   0.88924202 -0.049337773 
         965   0.94998129 -0.063286509 
         966   0.93668421 -0.025142253 
         967   0.91870746  0.030960835 
         968   0.92359823 -0.022370622 
         969   0.89874706 -0.0027693246 
         970   0.90528937   0.01566216 
         971    0.9067507 -0.037660737 
         972    0.8984138 -0.00096860296 
         973   0.91339183 -0.036867567 
         974   0.90958673  0.012798336 
         975   0.88448617  0.079433683 
         976   0.86653003 0.0067744062 
         977   0.88077809  0.052568303 
         978   0.92188254 -0.0015353361 
         979   0.92392846   0.11298894 
         980   0.96966481  0.041059588 
         981   0.87978122  0.033974725 
         982   0.92099174 -0.066631405 
         983    0.8855325 -0.011401718 
         984   0.88149066  0.045498442 
         985   0.89436557   0.10186418 
         986    0.8795351  0.055873029 
         987   0.91202589  0.084691698 
         988   0.86961565  0.074034246 
         989   0.91147939   0.12850995 
         990   0.94219976   0.19059434 
         991   0.93429888 -0.0087624491 
         992   0.93235764   0.05061375 
         993   0.90896378 -0.016180034 
         994   0.93474795 0.0090751285 
         995   0.89906396  0.071519094 
         996   0.87788534 -0.005397652 
         997   0.91980868 -0.088539666 
         998   0.97915437  0.022554666 
         999   0.94195337 -0.030801224 
        1000   0.89451744   0.13332897 
        1001   0.89609652 0.0078613301 
        1002   0.88651543 -0.038904577 
        1003   0.87315079  0.048003913 
        1004    0.9161116 -0.018401435 
        1005    0.9017438 -0.027275295 
        1006   0.91166274  -0.13612358 
        1007   0.91710221 -0.024863212 
        1008   0.86020871 -0.069581326 
        1009   0.90734408 -0.0014516117 
        1010   0.91314477 -0.051462227 
        1011   0.90989505  0.083046909 
        1012    0.9532587   0.08556613 
        1013    0.8699962  0.052590063 
        1014   0.91745389   0.02443616 
        1015   0.89028888   0.06179543 
        1016   0.89396001  0.020760387 
        1017   0.84871507 -0.064451234 
        1018   0.91795083 -0.089953878 
        1019   0.87690169  -0.13044222 
        1020   0.86431094  0.015371087 
        1021   0.89990253  0.024066527 
        1022   0.85145107 -0.051180473 
        1023   0.88836743  -0.13170399 
        1024   0.87179158 0.0097595288 
        1025   0.88438623 -0.026213434 
        1026   0.91605264 -0.038154544 
        1027     0.931149 -0.035209869 
        1028   0.91902102    -0.057861 
        1029   0.89704689  0.021167858 
        1030   0.87288069  -0.01815357 
        1031   0.93316178 -0.033763591 
        1032   0.91278866  -0.02511787 
        1033   0.89248621  -0.06368563 
        1034   0.93382032  0.024149257 
        1035   0.91062294  0.091269139 
        1036   0.91609924 -0.078109333 
        1037    0.8644231  0.038662665 
        1038   0.90800487 -0.047603299 
        1039   0.89698942 -0.0074803734 
        1040    0.8583966  -0.16803473 
        1041   0.93826061 -0.039519109 
        1042   0.85431084 -0.00035691501 
        1043   0.89029034 -0.0021101487 
        1044   0.89318711 -0.056820127 
        1045   0.90622481 -0.049978939 
        1046   0.92208484  0.061323585 
        1047    0.9186707 -0.011494113 
        1048   0.91451538 -0.014123475 
        1049   0.90823529  0.078615337 
        1050   0.89096623 -0.034858236 
        1051   0.86440467 -0.031099283 
        1052   0.93161807  -0.12750893 
        1053   0.88340659   0.10794439 
        1054   0.87353062 -0.020507231 
        1055   0.88688414   0.15727479 
        1056   0.88593693 -0.053323654 
        1057   0.86340097  -0.14738076 
        1058   0.91037306 -0.050151205 
        1059   0.88420173 -0.089285914 
        1060   0.87919405 -0.090061089 
        1061   0.89410199  0.080151891 
        1062   0.88969896 -0.012751233 
        1063    0.9151746  0.017836406 
        1064    0.9506187  0.087238716 
        1065   0.88407953 0.0037499196 
        1066    0.9016349 -0.067793637 
        1067   0.90405436 -0.069346602 
        1068   0.87776645  0.015466311 
        1069   0.89839281 -0.044148471 
        1070   0.89602717 -0.054954594 
        1071   0.92605797 -0.00047345314 
        1072   0.89622549 -0.025679219 
        1073    0.9456807  0.077902281 
        1074   0.87620739  0.030855385 
        1075   0.88261001  -0.05993994 
        1076   0.90061211 -0.086412046 
        1077   0.92625142   0.20141794 
        1078    0.9240834  -0.01195324 
        1079   0.87702564  0.050172315 
        1080   0.88410852 0.0096011716 
        1081   0.89215463  0.076323848 
        1082   0.91120794   0.11430075 
        1083   0.92330776  0.011835111 
        1084   0.91784585 -0.0097976856 
        1085   0.91680496  0.091388217 
        1086   0.95858424  0.062099952 
        1087   0.92229945  0.060685273 
        1088   0.89739662   0.10000472 
        1089   0.93882005   0.12722636 
        1090   0.89009519 -0.0035562109 
        1091   0.85659024  0.065491974 
        1092   0.85008234 -0.061772541 
        1093   0.88028403 -0.035440315 
        1094    0.9159876 -0.045381285 
        1095   0.90190512  0.076069691 
        1096   0.89158824  0.015363742 
        1097   0.89581688  0.069071391 
        1098   0.88667009 -0.016296394 
        1099   0.90410676 -0.025530096 
        1100   0.86030514  -0.10084868 
        1101   0.88370748 -0.065918673 
        1102   0.91558491  -0.16509404 
        1103   0.89874677 -0.087905379 
        1104   0.90277788 -0.0017427524 
        1105   0.96890983   0.08154391 
        1106   0.95168444    0.1320974 
        1107   0.91615273 0.0024808798 
        1108    0.9297676 -0.010674747 
        1109    0.9149093  -0.15465918 
        1110    0.9145865   0.07792532 
        1111    0.9106928 -0.062753589 
        1112   0.86729683 -0.054914653 
        1113   0.87404256  0.030430855 
        1114   0.94105613 -0.076659205 
        1115   0.90381435  0.032447842 
        1116   0.90217872  0.068769721 
        1117    0.8512828 -0.038728494 
        1118   0.89515343 -0.0044274741 
        1119    0.8897644   0.13730753 
        1120   0.86563176 0.0055880751 
        1121   0.85784741 -0.097661838 
        1122   0.89815253 -0.028480234 
        1123   0.88594488  0.013559711 
        1124   0.85160743  0.063734668 
        1125   0.92371452 -0.059160839 
        1126     0.849448 -0.060976778 
        1127   0.90322033   0.10682782 
        1128   0.90165305  -0.15218273 
        1129   0.91719642 -0.032843534 
        1130   0.92082836   0.12036133 
        1131   0.91161806 -0.0087595183 
        1132   0.89341544 0.0049609925 
        1133   0.87233665  0.074892789 
        1134   0.87131099  0.085061545 
        1135   0.90449569  -0.06057974 
        1136   0.94140206  -0.01184589 
        1137   0.87894194  0.080502652 
        1138   0.92535911  0.035991686 
        1139   0.88403511 -0.079669992 
        1140   0.93457752 -0.043798846 
        1141    0.8687454 -0.068767626 
        1142   0.87992637 -0.078030466 
        1143   0.87323704 -0.046336357 
        1144   0.89841968 0.0062031225 
        1145   0.91031617  -0.19593375 
        1146   0.89128678  0.070711488 
        1147   0.89008082  -0.11890995 
        1148   0.90463684 -0.038591791 
        1149   0.90388182 -0.0044588927 
        1150   0.94124836  -0.11574676 
        1151   0.86978347 -0.037717779 
        1152   0.92089491  0.012227127 
        1153   0.93076295   0.11059796 
        1154   0.88890923 -0.048229559 
        1155   0.91305132 -0.067610043 
        1156   0.89552136 -0.061951821 
        1157   0.91207121  -0.10284605 
        1158   0.88862981  0.010902625 
        1159   0.86595688  -0.16503516 
        1160   0.85718296  0.061130463 
        1161   0.88897866  0.050906505 
        1162   0.90189168 -0.022541494 
        1163   0.90907497  0.073517228 
        1164   0.91478396 -0.060317964 
        1165   0.90579795  0.058595961 
        1166   0.88851259 -0.0036867361 
        1167   0.92530183   0.02804299 
        1168   0.90498202 -0.0086545415 
        1169   0.88827584 -0.0014449331 
        1170   0.90593228 -0.019606153 
        1171   0.89542285  -0.12313234 
        1172   0.90946685 0.0084412094 
        1173    0.8947199  0.062116639 
        1174   0.95449326 0.0060051195 
        1175   0.91719801 -0.061650762 
        1176   0.93574539  0.022459902 
        1177   0.94593093 -0.027001212 
        1178   0.90477388  -0.06478308 
        1179   0.91789621 -0.051123436 
        1180   0.92304405 -0.093546151 
        1181   0.91378086  -0.11005332 
        1182   0.89484451   0.04064508 
        1183   0.90016618  0.045935243 
        1184   0.89234806 -0.033806565 
        1185    0.8745512  -0.12041693 
        1186    0.9147613  0.059764962 
        1187   0.88850069 -0.072558217 
        1188   0.89556165  0.080045971 
        1189   0.91709739  0.049462666 
        1190   0.89038896 -0.045465665 
        1191   0.87772031 -0.018624834 
        1192   0.88398181 -0.045059199 
        1193   0.88786049  0.064712805 
        1194   0.89097076 -0.093908518 
        1195    0.8809446 -0.034636476 
        1196   0.92214189 -0.043896001 
        1197   0.88385015  0.011414554 
        1198   0.84901027 -0.031226745 
        1199   0.87683258 -0.039023607 
        1200   0.92391827  0.053059348 
        1201   0.89142828  0.006944214 
        1202   0.87837436 -0.077577004 
        1203   0.91303813   0.10247973 
        1204   0.91209437  0.028074406 
        1205   0.89560705  0.056945261 
        1206    0.8889504  -0.03624772 
        1207   0.92055692  0.030951845 
        1208   0.90085002  0.021366735 
        1209   0.87836021   0.11746702 
        1210   0.89320597 -0.037502181 
        1211   0.87320012 -0.056439315 
        1212   0.91363313  0.025950696 
        1213   0.86817642  -0.01316373 
        1214   0.87376753  0.022178807 
        1215   0.86524417 -0.068892651 
        1216    0.8735198  0.010763085 
        1217   0.90209407 -0.0093270579 
        1218   0.89884797 -0.045733495 
        1219   0.88166082 -0.0019273773 
        1220   0.86347657 -0.091437408 
        1221   0.95211065 0.0048929622 
        1222   0.90488276 -0.071513464 
        1223   0.91462854  0.075132711 
        1224   0.88347886   0.07548475 
        1225   0.92682556 -0.071961939 
        1226   0.92579415 -0.044053082 
        1227   0.90809453 -0.099925676 
        1228   0.90282957 0.0079509837 
        1229   0.87405691 -0.025233461 
        1230   0.85371369  0.037489224 
        1231   0.88930541  0.083872857 
        1232   0.89462285  -0.05029946 
        1233    0.8823342 -0.047441538 
        1234   0.88398653 -0.062285566 
        1235   0.87599745  0.077608434 
        1236   0.94131964   0.10369459 
        1237   0.88003218  0.078012184 
        1238   0.88690002 -0.016490417 
        1239   0.90035994   0.11010058 
        1240   0.89426025 0.0016003156 
        1241    0.8923832  0.016575927 
        1242   0.90369182  0.021001695 
        1243   0.89228624  0.033551598 
        1244   0.90327012  -0.04451886 
        1245   0.89411849    0.1062086 
        1246   0.94415784 -0.0079150261 
        1247   0.87967189 -0.011532462 
        1248   0.91644854   0.10304293 
        1249   0.94079058  0.027794543 
        1250   0.88221662 -0.0014473626 
        1251   0.85030071 -0.053876156 
        1252   0.86141805 -0.012156728 
        1253   0.91309137 -0.083453654 
        1254   0.91132835 -0.095688143 
        1255   0.87606578 -0.0086369943 
        1256   0.90104774 -0.069799371 
        1257   0.86850674   0.10946028 
        1258   0.86816399 -0.017927862 
        1259   0.82582188  -0.12141069 
        1260    0.8951525  -0.10122154 
        1261   0.87688529 -0.0097956877 
        1262   0.87828272  0.066163165 
        1263   0.89230588  0.069315088 
        1264   0.89465682 -0.043550443 
        1265   0.87758386 -0.036072584 
        1266   0.84007009  0.016770294 
        1267   0.91293982  0.019312586 
        1268   0.92888949 -0.0071587576 
        1269   0.92641542  0.034790103 
        1270   0.90998921   0.04130138 
        1271   0.85917817 -0.013042709 
        1272   0.93355618 0.0074501615 
        1273   0.89907171   0.11173788 
        1274   0.89481213  -0.10121234 
        1275   0.93887613    0.0078307 
        1276   0.89663438 0.0036706894 
        1277    0.8852867 -0.015614605 
        1278   0.88986381  -0.16137034 
        1279   0.90238693  0.080629269 
        1280   0.90851607  -0.10156599 
        1281   0.91106795  0.054611877 
        1282   0.87176438 -0.020275035 
        1283   0.87957728 -0.060920788 
        1284   0.91352349 -0.036754711 
        1285   0.89399015 -0.045261124 
        1286   0.92148226 -0.014864458 
        1287   0.86420697   0.15940135 
        1288   0.91296817   -0.1305801 
        1289   0.88286053 -0.028455845 
        1290   0.88245043 -0.058818089 
        1291   0.89980928  0.053816153 
        1292   0.88289376  -0.20082916 
        1293    0.9211279 -0.0016353728 
        1294   0.92704722   0.04045617 
        1295   0.93146652 -0.079258486 
        1296   0.86505194  0.020475227 
        1297    0.9433938 0.0074865396 
        1298    0.8883479 -0.038382644 
        1299   0.88360853  0.010927703 
        1300   0.97183805 -0.075432853 
        1301    0.8857889 0.0025830161 
        1302   0.88050555  0.057621114 
        1303   0.91963826 -0.011295477 
        1304    0.9160397   0.03221417 
        1305   0.91901518  0.023954719 
        1306   0.90446532 -0.00044450381 
        1307   0.90023822 -0.052002519 
        1308   0.99706538   0.13660762 
        1309   0.89746765  0.023224712 
        1310   0.89710308 -0.0086641273 
        1311   0.89241266  0.076900644 
        1312   0.91107701  0.051285354 
        1313   0.87876701  0.031677513 
        1314   0.84767588  0.054971764 
        1315   0.87567344 0.0069267132 
        1316   0.86756678  0.010963386 
        1317   0.89989801 -0.020160946 
        1318   0.85198204  -0.14767671 
        1319   0.96689957 -0.021075465 
        1320   0.89444482 0.0077350368 
        1321   0.88264798 -0.029172018 
        1322    0.8788978 -0.051589349 
        1323   0.94163853  -0.05472051 
        1324   0.88562197   0.12357137 
        1325   0.89381187  -0.05517256 
        1326   0.91637317  0.048977362 
        1327   0.89266802   0.11330462 
        1328   0.89876987 -0.012273671 
        1329   0.90277689  0.030400729 
        1330   0.88409507   0.10918377 
        1331   0.85981159   0.13152432 
        1332    0.8941106  0.023287747 
        1333   0.89358649  -0.10653661 
        1334   0.90728364 -0.043016867 
        1335   0.89693533 -0.089207544 
        1336   0.86152549 -0.031323744 
        1337   0.85904346 -0.044914547 
        1338   0.87969412  0.098870235 
        1339   0.90392682 0.0068402032 
        1340   0.92088789  0.050889699 
        1341   0.91086848  0.082596874 
        1342   0.88744693  0.053729597 
        1343   0.85786937 -0.072131827 
        1344   0.90773329  0.069353566 
        1345   0.90686717  0.079410354 
        1346   0.89694741  0.028808769 
        1347   0.93035779 -0.028154763 
        1348   0.93584919 -0.0045780697 
        1349   0.88707815   0.10316701 
        1350   0.86938288   0.02093501 
        1351   0.89727774 0.0098801219 
        1352   0.89497855 -0.064638264 
        1353   0.86960902  -0.13281999 
        1354   0.92087525 -0.067609977 
        1355     0.854573  0.065161615 
        1356   0.89173679 -0.0044210278 
        1357   0.90094984 -0.055033061 
        1358   0.91236441 -0.041502923 
        1359   0.89829355  -0.10202092 
        1360   0.86925542  0.018866537 
        1361   0.91692029    0.0743341 
        1362   0.90793873   0.16399224 
        1363   0.88776451  0.017936539 
        1364   0.86945851  0.055544978 
        1365     0.895464  0.039288113 
        1366   0.91351506   -0.1301873 
        1367   0.88084824 -0.035796755 
        1368   0.91461974   0.03631885 
        1369   0.89729988  0.041863452 
        1370    0.9357312  0.091026967 
        1371   0.87276211  0.038988462 
        1372   0.89150281   0.13660004 
        1373   0.88135432 -0.090082219 
        1374   0.86910144  0.023509089 
        1375   0.94819332 0.0095548282 
        1376   0.91881215  0.019854678 
        1377   0.89879317  -0.10281775 
        1378   0.85751984  0.052341017 
        1379   0.89848094 -0.018031595 
        1380   0.87118622 -0.0025759599 
        1381   0.86521598  0.025530039 
        1382   0.91361151  0.025039686 
        1383   0.92318471 -0.096976141 
        1384   0.89020491 -0.055497072 
        1385   0.90244397  0.031127567 
        1386   0.92331098 -0.096416578 
        1387    0.8897572  -0.13369846 
        1388   0.88548005 -0.0079505681 
        1389   0.88900284   0.12213766 
        1390   0.93180076  0.064794642 
        1391   0.87910807  0.072301906 
        1392   0.91463594 0.0087880275 
        1393   0.95256242  0.045432848 
        1394   0.87955378  0.042826448 
        1395   0.87810282  -0.12427398 
        1396   0.89296217    0.1671594 
        1397   0.84897285  -0.11876563 
        1398    0.8700666 -0.049985604 
        1399    0.8488472  0.075389852 
        1400   0.94917262  0.011079676 
        1401   0.94243868 -0.077573517 
        1402    0.9369247 -0.034014427 
        1403    0.8749979 0.0078705467 
        1404   0.93307352  0.007449493 
        1405   0.91153527 -0.014487394 
        1406     0.909157 -0.062188033 
        1407   0.86657639 -0.060762446 
        1408   0.85787512 -0.058332683 
        1409   0.90398338 -0.0060736903 
        1410   0.90508349  0.081820101 
        1411   0.91164885  -0.10824078 
        1412   0.89621675 -0.088216131 
        1413   0.89414967 -0.046730349 
        1414   0.87170247  0.097044735 
        1415   0.85607201   0.13157632 
        1416   0.87893842  0.030654262 
        1417   0.90991208  -0.10617585 
        1418   0.90582601  -0.11667864 
        1419    0.8997431  -0.15129553 
        1420   0.88020403 -0.079403177 
        1421   0.88558102  -0.13574277 
        1422   0.93054799  -0.10370419 
        1423   0.89867969 -0.022589807 
        1424   0.94107802  0.010738181 
        1425   0.89929806  0.043109978 
        1426   0.85589741  0.057872679 
        1427   0.86806366 -0.094910631 
        1428   0.88119533 -0.047709325 
        1429   0.92800687 -0.023673025 
        1430   0.92460269  0.031788466 
        1431   0.91763246 -0.021463941 
        1432   0.90948189 -0.065210453 
        1433   0.88833792 -0.080654154 
        1434   0.88035526   -0.1306867 
        1435    0.9109539 -0.038906679 
        1436   0.87280164 -0.0041757146 
        1437   0.90079248 0.0032415744 
        1438   0.91205893 -0.028398686 
        1439   0.89584676  0.028229941 
        1440   0.92911137 -0.092394119 
        1441   0.85364868 -0.063501086 
        1442   0.92947841  0.096842972 
        1443   0.92132807 -0.031281471 
        1444   0.87310247 -0.015492608 
        1445   0.87617166 -0.0031046509 
        1446   0.91599521  0.041883783 
        1447   0.86769124 -0.081677614 
        1448   0.85087131   -0.1222947 
        1449   0.88920917  0.010312191 
        1450   0.89946524  0.047227768 
        1451   0.91151081  0.011404395 
        1452   0.93669898 -0.035568199 
        1453   0.89797572 -0.0039036759 
        1454   0.87434221  0.062535734 
        1455   0.91312948   0.05762542 
        1456   0.89622133 -0.080821315 
        1457   0.88669072  -0.04602682 
        1458   0.90935625  0.021024137 
        1459   0.92752266  0.023431657 
        1460   0.92438249 -0.086394158 
        1461   0.90134393  -0.11687474 
        1462   0.87428403 -0.0015628228 
        1463   0.93364413    0.1214357 
        1464    0.8949387  0.033079163 
        1465   0.87294907  0.011807408 
        1466   0.89410545 -0.057342064 
        1467   0.88016782  -0.19452136 
        1468   0.86072017 -0.079838523 
        1469   0.89987525 -0.044509047 
        1470   0.91203307  0.099892583 
        1471    0.8872856 -0.067235928 
        1472   0.90441408  -0.04341548 
        1473   0.89662134 -0.014626968 
        1474   0.91093033  -0.11350268 
        1475   0.88886036 -0.023146669 
        1476   0.90387609  0.076185096 
        1477   0.90697588  0.097269236 
        1478   0.90734372 -0.042965077 
        1479   0.91101841  0.016587506 
        1480   0.87994098  0.049781171 
        1481   0.88674709 -0.012506722 
        1482   0.90516839  -0.14426014 
        1483    0.9126762  -0.14635519 
        1484   0.89934029  0.036394429 
        1485   0.90640801  0.027158586 
        1486   0.90445151 -0.079705038 
        1487   0.91270249  -0.16698055 
        1488   0.90115418  0.034715097 
        1489   0.91741626 -0.053453171 
        1490   0.87082291 -0.031877992 
        1491   0.89824803 -0.032656846 
        1492   0.86878104  -0.13021099 
        1493   0.88710887  -0.15601368 
        1494   0.90502841 -0.017667083 
        1495   0.86992136 -0.045778783 
        1496   0.92900942 -0.053212147 
        1497   0.87432964 -0.035302215 
        1498   0.84772331 -0.054869874 
        1499   0.91614408  0.013544555 
        1500   0.88418502  0.083347078 
        1501   0.89745572  0.080581739 
        1502   0.92495788 -0.003307968 
        1503   0.94445241    0.1093719 
        1504   0.90635156   0.07757503 
        1505   0.88703635  0.021056333 
        1506   0.89207393 0.0061089287 
        1507   0.85665992 -0.040339295 
        1508   0.90109512  0.037931701 
        1509   0.90348755   0.13238347 
        1510   0.89580452 -0.062143614 
        1511   0.89276733  -0.04347478 
        1512   0.90133437 -0.020145742 
        1513   0.91814007 -0.015638092 
        1514   0.87050366 -0.011530811 
        1515   0.92740728   0.09481121 
        1516   0.89343596   0.11364869 
        1517   0.87209686 -0.0055889517 
        1518   0.88467511 0.0032200949 
        1519   0.91752747  -0.11776952 
        1520   0.90434704 -0.00015772865 
        1521    0.8756571   0.04266708 
        1522   0.88209671 -0.028294364 
        1523   0.92533669 -0.061497286 
        1524   0.95557724    0.1042307 
        1525   0.87845205  0.082137478 
        1526   0.91767787  0.046772009 
        1527   0.87990032   -0.0554984 
        1528   0.86783522  0.026213042 
        1529   0.89530437  -0.03414045 
        1530   0.90731923  0.034390278 
        1531    0.9091707 0.0079791178 
        1532   0.88912149 0.00044387194 
        1533   0.91026298 -0.032213107 
        1534   0.93892015 -0.015549701 
        1535   0.89944812 -0.071757767 
        1536   0.91581798 -0.025639645 
        1537   0.91579753 0.0071840487 
        1538   0.89524584 -0.055526135 
        1539    0.8895541  0.045365029 
        1540   0.92154622  0.019293298 
        1541   0.89484614   -0.0282843 
        1542   0.87639791   -0.1277212 
        1543   0.93816284 -0.066781667 
        1544   0.87066796 -0.086968949 
        1545   0.85675052 0.0088205381 
        1546   0.92710496  0.011628979 
        1547   0.89431416  0.017701804 
        1548   0.88590971  0.085771569 
        1549   0.87469177  0.027433593 
        1550   0.86322782 -0.050258212 
        1551   0.88928588 -0.017226694 
        1552   0.92635791  0.061601084 
        1553   0.88940502  0.013372074 
        1554   0.86005564 -0.020316563 
        1555   0.88471636  0.017959866 
        1556   0.91948597 0.0084103918 
        1557   0.91309268  0.011547424 
        1558   0.90474327  0.032479509 
        1559   0.92357711  0.027142693 
        1560   0.91599391  0.057074171 
        1561   0.92589113  -0.13431865 
        1562   0.92754632 0.0054072085 
        1563   0.84958704 0.0099699164 
        1564   0.97318899   0.14591152 
        1565   0.89028998   0.10120951 
        1566   0.90438599 -0.028062771 
        1567   0.90134929 -0.0095020732 
        1568   0.90641419 0.0092488995 
        1569   0.85897437  0.041817541 
        1570   0.88789924  -0.08868993 
        1571   0.86265165   0.02250201 
        1572   0.87725375  -0.11649554 
        1573   0.85982216 -0.070051516 
        1574   0.89696953  0.076623135 
        1575   0.93493628  0.023882061 
        1576   0.91754686  0.020948111 
        1577   0.92461905   0.11597315 
        1578   0.96558637  -0.17561764 
        1579   0.87921585  0.044200807 
        1580   0.87415333 -0.072422037 
        1581   0.96728735  0.033336181 
        1582    0.8849087  -0.15900862 
        1583   0.89630098  0.072147011 
        1584    0.9180693  0.021376592 
        1585   0.92795795 -0.073353744 
        1586   0.86889453 -0.024676221 
        1587    0.8961933 -0.051727522 
        1588   0.85495971 -0.057042447 
        1589   0.92730547  0.030702003 
        1590    0.8958844 -0.022513943 
        1591   0.88334827 -0.019105835 
        1592   0.94766963 -0.038281458 
        1593   0.86781494 -0.053936082 
        1594    0.9020552 -0.097606906 
        1595   0.88745006  -0.11253982 
        1596   0.89029839  0.053228972 
        1597   0.91395698 -0.0084700858 
        1598   0.88895016   0.06552649 
        1599   0.90080561 -0.094758878 
        1600   0.88408902 -0.025836394 
        1601   0.92970711 -0.028561741 
        1602   0.94715619 -0.018223646 
        1603   0.88822183 -0.023581208 
        1604   0.89107253 -0.0016784094 
        1605   0.81854042 -0.099407992 
        1606   0.88133789 -0.035241754 
        1607   0.89284775 -0.020677834 
        1608   0.92615246  -0.04383646 
        1609   0.87789519  0.082520229 
        1610    0.8968761 -0.0032027383 
        1611   0.88826643  -0.06497631 
        1612   0.93260775  0.065899756 
        1613   0.90182488  0.079832621 
        1614    0.8636722 -0.010298695 
        1615   0.88329321 -0.070951369 
        1616   0.89375509   0.07707591 
        1617    0.8986795  -0.11903995 
        1618   0.85731338 -0.023838577 
        1619   0.89890739 -0.017811454 
        1620   0.88935432 -0.058189018 
        1621    0.9145529   0.10533379 
        1622    0.8620814 -0.0057396541 
        1623   0.85647359  0.064230614 
        1624   0.88993525 -0.096680006 
        1625   0.88737965 -0.00093676598 
        1626   0.86359801 -0.047262946 
        1627   0.89664776 -0.061296221 
        1628   0.90126092 -0.049092463 
        1629   0.90583287  0.050555351 
        1630   0.89917807  0.006358315 
        1631   0.95237862 -0.054574563 
        1632   0.90350919  0.020765189 
        1633   0.84737354  0.079554949 
        1634   0.92930719 -0.048128014 
        1635   0.90767655  -0.12836684 
        1636   0.91795369 -0.043991382 
        1637      0.88643 0.0011678031 
        1638    0.8967351  0.040982702 
        1639    0.8677617 -0.057104749 
        1640   0.87660633  -0.09683579 
        1641   0.94347711  0.031842434 
        1642   0.90534057    0.0995084 
        1643   0.89198546 -0.074199398 
        1644   0.88107664  0.020745597 
        1645   0.91212522 -0.065821671 
        1646   0.91737651   0.13989985 
        1647   0.92620987 -0.033276162 
        1648   0.89111226  -0.13283038 
        1649   0.88697419  0.062945134 
        1650   0.91845102  -0.17953976 
        1651   0.89825286  0.075775736 
        1652   0.92240928 -0.049930055 
        1653   0.87791427  0.010264137 
        1654   0.91705778  0.075765022 
        1655    0.8981006  0.073331208 
        1656   0.91505248  -0.15606473 
        1657   0.86916066  0.032998941 
        1658   0.90556212  0.019305013 
        1659   0.91197362 -0.0082954268 
        1660   0.85227411 -0.047034315 
        1661   0.89423351 -0.075722544 
        1662   0.94899805  0.077826205 
        1663    0.9011478  0.039708643 
        1664   0.88639595   0.10249467 
        1665    0.8964469  0.064743749 
        1666    0.8983846  0.012544822 
        1667   0.90938834 0.0085675854 
        1668   0.90351902 -0.050498596 
        1669   0.89102196 -0.0012729794 
        1670   0.87164712 -0.013351146 
        1671   0.91980525  0.032611007 
        1672   0.88566705  0.025043655 
        1673   0.87416704  0.085178287 
        1674    0.9210952  0.031176992 
        1675   0.89371434 -0.021562451 
        1676    0.8711638  0.023627038 
        1677   0.85592469 -0.049134221 
        1678   0.89906118   0.03550212 
        1679   0.92024093  -0.08397726 
        1680   0.90655571  0.020583965 
        1681   0.89327122  -0.13506684 
        1682   0.87478145 -0.028258342 
        1683   0.96208392   0.15540586 
        1684   0.92089211  0.023110647 
        1685   0.95385312  0.071749255 
        1686   0.92386739 -0.083550766 
        1687   0.93765626  -0.01734096 
        1688   0.89779349 -0.052513211 
        1689   0.85763937 -0.091303704 
        1690   0.86353984  0.027096595 
        1691   0.92551441  0.055334969 
        1692   0.92097961  0.036612507 
        1693   0.92712581   0.33662772 
        1694   0.86950537  0.026350393 
        1695   0.86642093  -0.12696203 
        1696   0.93197208  -0.13174421 
        1697   0.87214216 -0.021582016 
        1698   0.88422251 -0.072168795 
        1699   0.87983368 -0.055200671 
        1700   0.88790005  0.008441258 
        1701   0.91253402  0.088986033 
        1702   0.92013816 -0.0090788301 
        1703    0.8761151 -0.064105197 
        1704   0.88723532  0.020313984 
        1705   0.88378908 0.0038675317 
        1706    0.8883986  0.011192617 
        1707    0.8930301 -0.025247294 
        1708   0.86600656 -0.056265917 
        1709   0.87753034  0.058474903 
        1710    0.8841247  0.025005389 
        1711   0.88331413  0.020960463 
        1712   0.89618951 -0.061070623 
        1713   0.93743293 -0.057904484 
        1714   0.94390952  0.055486805 
        1715   0.90949197  0.097128912 
        1716    0.9040713 0.0016426203 
        1717    0.8843029  -0.02685274 
        1718   0.88703236  -0.12070703 
        1719   0.90911559 -0.018006498 
        1720   0.91347216  0.091718582 
        1721    0.9479594 -0.059106805 
        1722   0.87370368  -0.14741679 
        1723   0.84526669 -0.055769082 
        1724   0.90097549  0.063414048 
        1725   0.92578891 -0.0086078733 
        1726   0.90679665 -0.0033357734 
        1727   0.91961862  -0.10590684 
        1728    0.9082893  0.050715116 
        1729   0.90596832  -0.10677107 
        1730   0.87785581 -0.099181875 
        1731   0.84679282 -0.072246935 
        1732   0.87916948  0.051838051 
        1733   0.93166033  -0.02576853 
        1734   0.89464672  -0.11674518 
        1735   0.93142132   0.11409426 
        1736   0.92691183 -0.009366402 
        1737   0.92094733  0.053690582 
        1738   0.90925809  0.062248436 
        1739   0.87519186 -0.021619831 
        1740   0.90035517   0.13921292 
        1741    0.9163134  0.098960734 
        1742   0.83069895 -0.036145432 
        1743   0.90588177 -0.030984806 
        1744   0.92542767  0.069783764 
        1745   0.89151917  -0.02463822 
        1746   0.90108112  -0.11396709 
        1747   0.92864453    0.1439771 
        1748   0.91827332  0.057587534 
        1749   0.86373594 -0.037745034 
        1750   0.91146555  0.070257726 
        1751   0.88911373 -0.021696035 
        1752   0.87489166  0.039701363 
        1753    0.9145054  0.078064255 
        1754   0.89700941  0.028443906 
        1755   0.83667813  0.079324706 
        1756   0.89225065 -0.048692269 
        1757   0.87120643 -0.057095067 
        1758   0.88977494 -0.013066016 
        1759   0.95732037  -0.02357249 
        1760   0.90328266  0.043604288 
        1761   0.91704686  0.087961388 
        1762   0.86200608  0.026854109 
        1763    0.9463136  0.066891243 
        1764   0.93339235  0.017756342 
        1765   0.89596752  0.019793161 
        1766   0.88791264  0.029501634 
        1767   0.86963889 -0.082242547 
        1768   0.86857571 -0.020527766 
        1769    0.9041371 -0.064588062 
        1770   0.90013533  0.066495281 
        1771    0.8986744 -0.067451843 
        1772   0.91851178  0.082853538 
        1773    0.8723866 -0.025158451 
        1774   0.91913765  0.077549915 
        1775    0.8998109 -0.062285609 
        1776   0.87971273 -0.044571883 
        1777   0.91325648   0.14791975 
        1778   0.94187978  0.084021624 
        1779   0.91476556  0.075947809 
        1780   0.91218952 -0.029392106 
        1781   0.87553606  0.073655465 
        1782   0.89515702 0.00081078042 
        1783   0.89263401 -0.054593561 
        1784   0.91596949 -0.024807709 
        1785   0.92918326  0.026349396 
        1786   0.91415305 -0.030195105 
        1787   0.88420488  -0.10681453 
        1788   0.89644546 -0.0019868827 
        1789   0.90508376  0.084123625 
        1790    0.8662305 -0.029245374 
        1791   0.90541496  0.007755632 
        1792   0.88460905  0.054651263 
        1793   0.92061816 -0.073111632 
        1794   0.88642043  0.043147712 
        1795    0.9081842  0.024417879 
        1796   0.89547804  0.056783599 
        1797   0.89407897  -0.10227291 
        1798   0.86634711 -0.026884628 
        1799   0.88603928 -0.063389332 
        1800   0.86894911  -0.10211356 
        1801   0.87328701  0.096829856 
        1802   0.90663821   0.05130708 
        1803   0.89926874  0.025297444 
        1804   0.90772936  -0.12188628 
        1805   0.93606338 -0.059818948 
        1806   0.87361226  0.035211997 
        1807   0.90803773 -0.086135802 
        1808   0.87820404 -0.052020276 
        1809   0.92475394  0.078796714 
        1810   0.86200225  -0.14520034 
        1811    0.9278945  0.029612769 
        1812   0.90995022 -0.068994716 
        1813    0.9248785  0.061864455 
        1814   0.86667449 -0.064582311 
        1815   0.89643825 -0.026046815 
        1816   0.88775299  0.055201521 
        1817   0.92542132  0.084999619 
        1818   0.89500082 -0.026266098 
        1819   0.85831606 -0.0084237866 
        1820   0.86397237 -0.060108389 
        1821   0.91401737  0.061264168 
        1822   0.90360829  -0.11667781 
        1823   0.89278605 0.0072311021 
        1824   0.90838412 0.0040854849 
        1825   0.90643525   0.10568947 
        1826   0.91651982  0.033723919 
        1827   0.92072201  0.075968477 
        1828   0.87856935  0.041189602 
        1829   0.93834211 0.00042560704 
        1830   0.90540049 -0.061793793 
        1831   0.88951708 -0.070741652 
        1832   0.92626579 -0.034676807 
        1833   0.94081074 -0.018390414 
        1834   0.86952086 -0.0066234122 
        1835   0.93506708  -0.03717412 
        1836   0.89420543  0.072916762 
        1837   0.91099991  0.026741251 
        1838   0.89808543 -0.064760162 
        1839   0.88526424 -0.0070098106 
        1840   0.89290499 -0.081029304 
        1841   0.89475788 -0.085764207 
        1842    0.9107507   -0.0331796 
        1843   0.91735945  -0.12579442 
        1844   0.89682972   0.10233964 
        1845   0.92222975 0.0014283001 
        1846   0.88683818  0.057516345 
        1847   0.88777015  0.052907984 
        1848   0.93417437  0.052590668 
        1849   0.87664399  -0.06900819 
        1850   0.89039269   0.01950159 
        1851    0.8548035 -0.026452213 
        1852   0.90248814   0.06292071 
        1853    0.9221862  0.023417679 
        1854   0.91343988   0.09173961 
        1855    0.9303278  -0.01057976 
        1856   0.85227713   -0.1420199 
        1857   0.91811307   0.02936284 
        1858   0.85791002 0.0060356198 
        1859   0.91947629  0.026440016 
        1860   0.87394672 -0.097119752 
        1861    0.8628868 -0.042297897 
        1862   0.89515126 -0.037691457 
        1863   0.90507671   0.10272933 
        1864   0.90711068  0.033740268 
        1865    0.8770362 -0.022809494 
        1866   0.86200367  0.064498049 
        1867   0.91882747 -0.0056541679 
        1868   0.90240919 -0.053482356 
        1869   0.90704435  0.039582637 
        1870   0.88648797 -0.089581089 
        1871   0.89542042  -0.12866015 
        1872   0.93170981  0.037258886 
        1873   0.88452005 0.0030805727 
        1874   0.89374686   0.16289575 
        1875   0.95837289  0.042627282 
        1876   0.93603406     0.101731 
        1877    0.9018837 -0.027198071 
        1878   0.87351232  0.034662884 
        1879   0.86299115 -0.066732389 
        1880   0.91604966   0.12087839 
        1881   0.84786572 -0.085771022 
        1882   0.88296142 -0.054613152 
        1883   0.94478092  0.092829789 
        1884   0.93285329 0.0087002956 
        1885   0.92592914  0.047818046 
        1886   0.91669953   0.01430856 
        1887   0.91174609 -0.014730151 
        1888   0.88528613  0.083862296 
        1889    0.9018806 -0.0063475725 
        1890   0.90262765 -0.013627721 
        1891   0.90296678 -0.022742091 
        1892    0.9028758  -0.10623603 
        1893   0.90647345 -0.0079464879 
        1894   0.88742644 -0.024755118 
        1895   0.90599608  0.021472647 
        1896   0.91272042  0.045784872 
        1897   0.87062108 0.0058358934 
        1898   0.90247405   0.10191658 
        1899   0.87911861  0.024639379 
        1900   0.91738565  0.010348307 
        1901   0.92557698 -0.065890491 
        1902   0.91804487  -0.10991716 
        1903   0.89233103 -0.0044759406 
        1904    0.8993206 -0.018258741 
        1905   0.88301847 -0.075290456 
        1906   0.87229416  -0.03053406 
        1907   0.90015719   0.10706235 
        1908   0.91477579 -0.075375813 
        1909   0.89431747 -0.037938523 
        1910   0.90365444  -0.14509392 
        1911   0.92149013 -0.058798573 
        1912   0.88040561  -0.09205109 
        1913   0.89285605 -0.039454955 
        1914    0.8999937  0.047935222 
        1915   0.90924691 0.0077016636 
        1916   0.85259661    0.0211908 
        1917   0.88581979   0.13723655 
        1918   0.87332181 0.0097561236 
        1919   0.90631752  -0.17173375 
        1920   0.91559195 -0.060575818 
        1921   0.89535639  0.013987384 
        1922   0.93843759  0.024556197 
        1923   0.89736072  0.084470429 
        1924   0.96246667 0.0016083938 
        1925    0.9242259 -0.031539529 
        1926   0.87549681 -0.00060166092 
        1927   0.91260501 -0.043619679 
        1928   0.90859243  0.046899429 
        1929   0.92106548  0.052354706 
        1930   0.92947742 -0.080063742 
        1931   0.91779924 -0.028052778 
        1932   0.89301742  0.015499658 
        1933   0.89280873   0.15116239 
        1934   0.90592029   0.16502741 
        1935   0.89273348 -0.097732655 
        1936   0.88399966  0.017902051 
        1937   0.87306044 -0.043723861 
        1938   0.87931973  0.082526444 
        1939    0.9413388  0.032298588 
        1940   0.93754467  -0.11053132 
        1941      0.93111 -0.044639735 
        1942   0.90601554  0.023802337 
        1943    0.8908558  0.067679473 
        1944   0.95954023  0.020758006 
        1945   0.89042351 -0.050253086 
        1946   0.90132118 -0.077768093 
        1947   0.86638622 -0.015741107 
        1948   0.93582774   0.10964475 
        1949   0.87084012  -0.13197447 
        1950   0.90544531  -0.02001168 
        1951   0.87971407   0.10221098 
        1952    0.8637515  0.074422851 
        1953   0.90825741  0.013439425 
        1954   0.93461707 0.0039644626 
        1955   0.90155209  0.082257793 
        1956    0.8449846  0.086897929 
        1957   0.92406289  0.044156647 
        1958   0.90158958 -0.062347737 
        1959   0.89236908 -0.059095253 
        1960   0.92473917   0.07989014 
        1961   0.88368141 -0.060063091 
        1962    0.8912548 -0.021487611 
        1963   0.88152588   0.13984875 
        1964   0.84541009 -0.066798844 
        1965   0.90351772  0.016970851 
        1966   0.91463222 -0.027111062 
        1967   0.92191261 -0.065658094 
        1968     0.918262 0.0054591355 
        1969   0.88304877  0.097875093 
        1970    0.8966742  0.017729574 
        1971   0.88621148  -0.02221842 
        1972   0.92799251   0.04965695 
        1973    0.8817306 -0.043579858 
        1974    0.8950588 -0.089659626 
        1975   0.93758723  0.079942896 
        1976   0.86822767  0.094342076 
        1977   0.91000568 -0.049698806 
        1978   0.87199815 -0.006382846 
        1979   0.91060936  0.024507692 
        1980   0.85844918 -0.065661857 
        1981   0.91159884   0.10548328 
        1982   0.91513443 0.0019804344 
        1983   0.89830851   -0.1082365 
        1984   0.89061038 -0.059683914 
        1985   0.94352748 -0.098328699 
        1986   0.89335667  0.083025069 
        1987   0.93596954 -0.040057979 
        1988   0.89591717   -0.1248379 
        1989   0.89708503   -0.1079362 
        1990   0.89493701 0.0023009133 
        1991   0.89965238   0.17575224 
        1992   0.84845723 -0.025908629 
        1993     0.913314  0.013577733 
        1994   0.91659605 -0.093781638 
        1995   0.89869634 -0.078382909 
        1996   0.90311322 -0.067229775 
        1997   0.85651466  -0.10541506 
        1998   0.89737984 -0.074591272 
        1999   0.90235032 -0.078965839 
        2000   0.91998495 -0.018598557 
Loop time of 903.963 on 1 procs for 2000000 steps with 864 atoms

Performance: 191158.216 tau/day, 2212.479 timesteps/s
99.8% CPU use with 1 MPI tasks x no OpenMP threads

MPI task timing breakdown:
Section |  min time  |  avg time  |  max time  |%varavg| %total
---------------------------------------------------------------
Pair    | 805.66     | 805.66     | 805.66     |   0.0 | 89.12
Neigh   | 55.671     | 55.671     | 55.671     |   0.0 |  6.16
Comm    | 16.817     | 16.817     | 16.817     |   0.0 |  1.86
Output  | 0.019877   | 0.019877   | 0.019877   |   0.0 |  0.00
Modify  | 20.028     | 20.028     | 20.028     |   0.0 |  2.22
Other   |            | 5.77       |            |       |  0.64

Nlocal:    864 ave 864 max 864 min
Histogram: 1 0 0 0 0 0 0 0 0 0
Nghost:    2571 ave 2571 max 2571 min
Histogram: 1 0 0 0 0 0 0 0 0 0
Neighs:    38223 ave 38223 max 38223 min
Histogram: 1 0 0 0 0 0 0 0 0 0

Total # of neighbors = 38223
Ave neighs/atom = 44.2396
Neighbor list builds = 50989
Dangerous builds = 0
Total wall time: 0:15:03
