LAMMPS (18 Jun 2019)
LAMMPS (18 Jun 2019)
Total wall time: 0:00:00
LAMMPS (18 Jun 2019)
Total wall time: 0:00:00
LAMMPS (18 Jun 2019)
LAMMPS (18 Jun 2019)
LAMMPS (18 Jun 2019)
Total wall time: 0:00:00
Total wall time: 0:00:00
Reading data file ...
  orthogonal box = (0 0 0) to (20.5197 10.2599 10.2599)
  1 by 1 by 1 MPI processor grid
  reading atoms ...
Total wall time: 0:00:00
LAMMPS (18 Jun 2019)
  864 atoms
  reading velocities ...
Total wall time: 0:00:00
LAMMPS (18 Jun 2019)
Total wall time: 0:00:00
  864 velocities
  read_data CPU = 0.00479412 secs
Neighbor list info ...
  update every 1 steps, delay 10 steps, check yes
  max neighbors/atom: 2000, page size: 100000
  master list distance cutoff = 3.3
  ghost atom cutoff = 3.3
  binsize = 1.65, bins = 13 7 7
  1 neighbor lists, perpetual/occasional/extra = 1 0 0
  (1) pair lj/cut, perpetual
      attributes: half, newton on
      pair build: half/bin/atomonly/newton
      stencil: half/bin/3d/newton
      bin: standard
Setting up Verlet run ...
  Unit style    : lj
  Current step  : 0
  Time step     : 0.001
Per MPI rank memory allocation (min/avg/max) = 2.8 | 2.8 | 2.8 Mbytes
Time Temp Press 
           0    0.3379911    -2.869697 
        0.01   0.42592628   -2.8265627 
        0.02   0.58208209   -2.7339998 
        0.03   0.78156912   -2.5883277 
        0.04   0.97715821   -2.3909304 
        0.05    1.0763529   -2.1579019 
        0.06    1.0095734   -1.9060561 
        0.07   0.90634758   -1.5903842 
        0.08   0.91607683    -1.153412 
        0.09   0.95848614   -0.6393325 
         0.1   0.98240597   -0.1371691 
        0.11      1.00778   0.27525103 
        0.12    1.0322251   0.55456867 
        0.13    1.0253887   0.70512088 
        0.14    0.9889154   0.77297619 
        0.15   0.97516586   0.81646186 
        0.16    1.0032631   0.86144104 
        0.17    1.0260764   0.89632136 
        0.18     1.004886   0.90393513 
        0.19   0.97831942   0.89271239 
         0.2   0.99255644   0.87683618 
        0.21    1.0228369   0.85476834 
        0.22    1.0125216   0.82019874 
        0.23   0.97816083   0.78533534 
        0.24   0.97982937    0.7663749 
        0.25    1.0164053   0.76071595 
        0.26    1.0242876   0.75070354 
        0.27    0.9869524    0.7353855 
        0.28    0.9701695   0.73311269 
        0.29    1.0066539    0.7425855 
         0.3    1.0368683   0.73522443 
        0.31    1.0038984    0.7019443 
        0.32   0.96477412   0.68160652 
        0.33   0.98152597    0.6996674 
        0.34    1.0242848   0.73468891 
        0.35    1.0211788   0.74535951 
        0.36   0.97845724     0.724867 
        0.37   0.96974768   0.69964995 
        0.38    1.0424202   0.69659998 
        0.39    1.0583157   0.67690792 
         0.4    1.0103997   0.64181867 
        0.41   0.99159013   0.62562501 
        0.42   0.98764958   0.62903869 
        0.43    1.0114865   0.66225391 
        0.44    1.0429026   0.71274675 
        0.45    1.0016849    0.7303971 
        0.46    0.9440223   0.71677774 
        0.47   0.98341928   0.71938384 
        0.48    1.0121088   0.71842297 
        0.49    1.0034974   0.72116689 
         0.5   0.98041383   0.73401734 
        0.51   0.99122446   0.75759665 
        0.52    1.0434466   0.78326484 
        0.53    1.0189125   0.76782995 
        0.54    0.9749739   0.73242681 
        0.55   0.98986239   0.70822027 
        0.56    1.0135516    0.6866738 
        0.57    1.0084578   0.66599548 
        0.58   0.99271402   0.65786132 
        0.59   0.98960071   0.67026586 
         0.6   0.99862442   0.69317982 
        0.61    1.0183289    0.7128917 
        0.62    1.0188572   0.71753202 
        0.63   0.96517715   0.69944426 
        0.64   0.95861957    0.6929639 
        0.65    1.0253731   0.70239398 
        0.66    1.0273925   0.68708528 
        0.67   0.99626737   0.66911064 
        0.68   0.98258829   0.66691671 
        0.69    1.0016549   0.69078258 
         0.7    1.0677835   0.74628093 
        0.71    1.0310517   0.76384955 
        0.72   0.99506511   0.76102596 
        0.73   0.99569418   0.74721844 
        0.74    1.0068169   0.73136395 
        0.75    1.0051136   0.72273497 
        0.76   0.97796884   0.71928465 
        0.77   0.97754897   0.72619751 
        0.78    1.0302076   0.74207327 
        0.79    1.0295197   0.73031994 
         0.8   0.97548057   0.69930201 
        0.81   0.97005667   0.69540512 
        0.82   0.98854519   0.70764079 
        0.83    1.0095749   0.71777047 
        0.84    1.0163952   0.71398509 
        0.85   0.97915483   0.68649517 
        0.86   0.94666123    0.6489839 
        0.87    1.0102062   0.63753322 
        0.88    1.0378853    0.6145486 
        0.89    1.0073909   0.58282761 
         0.9   0.98550972   0.56311657 
        0.91   0.99278706   0.55970224 
        0.92    1.0409575    0.5855217 
        0.93    1.0631072   0.62470353 
        0.94    0.9754994   0.63756487 
        0.95   0.96457698   0.67522431 
        0.96    1.0010574   0.71332019 
        0.97    1.0208663   0.72304392 
        0.98    1.0043685   0.69824705 
        0.99   0.95345985   0.64794601 
           1   0.94652846   0.60762528 
        1.01    1.0432156   0.60785171 
        1.02    1.0246144   0.58243596 
        1.03   0.97355416   0.55896285 
        1.04   0.98004301   0.55048546 
        1.05    1.0305952   0.55667021 
        1.06    1.0282225     0.552536 
        1.07   0.93986607   0.50766269 
        1.08   0.96466547   0.48141258 
        1.09    1.0197018   0.45925502 
         1.1     1.022866   0.43272008 
        1.11   0.97296494   0.40450024 
        1.12   0.96128432   0.40066537 
        1.13      1.04149   0.43611294 
        1.14    1.0252647   0.43750502 
        1.15   0.98091049   0.42397692 
        1.16   0.97773255   0.41702263 
        1.17    1.0297134   0.42993985 
        1.18    1.0429775   0.43963285 
        1.19   0.95266736   0.42315347 
         1.2   0.94986544   0.44142958 
        1.21    0.9956107   0.46924193 
        1.22    1.0214338    0.4754362 
        1.23    1.0095724   0.44802632 
        1.24   0.96902835   0.38855593 
        1.25   0.96587666   0.33439975 
        1.26    1.0505796   0.32567886 
        1.27    1.0423153   0.30209917 
        1.28   0.98744974   0.27718103 
        1.29   0.97925853   0.27769023 
         1.3    1.0081433   0.29424038 
        1.31     1.031542   0.31350297 
        1.32   0.99197707   0.31780397 
        1.33   0.93805225   0.31921523 
        1.34   0.98676933   0.35397265 
        1.35    1.0175406   0.37375399 
        1.36    1.0068001   0.36955135 
        1.37   0.97694588   0.34594621 
        1.38   0.96438023   0.31225004 
        1.39    1.0227807   0.29403151 
         1.4    1.0484214   0.26870371 
        1.41   0.98827514   0.23296206 
        1.42   0.97217892    0.2363829 
        1.43   0.99274001   0.26508161 
        1.44     1.008333   0.29443058 
        1.45    1.0017744   0.31388416 
        1.46   0.99321616   0.32657195 
        1.47     1.010557   0.33654964 
        1.48    1.0857632   0.35494923 
        1.49    1.0208351   0.31299547 
         1.5   0.97888594   0.28003549 
        1.51   0.98654756    0.2660066 
        1.52    1.0266548   0.26333661 
        1.53    1.0293342    0.2473166 
        1.54   0.95395988   0.20507833 
        1.55   0.96034105   0.19894203 
        1.56   0.99846677   0.21153865 
        1.57     1.007199   0.21890806 
        1.58   0.99995325    0.2210005 
        1.59   0.99096812   0.22018377 
         1.6    1.0033345   0.22373808 
        1.61    1.0250334   0.22802191 
        1.62    1.0046764   0.21967568 
        1.63   0.95718991   0.20807352 
        1.64   0.97978401   0.22592317 
        1.65    1.0325422   0.25185674 
        1.66    1.0088189   0.24296111 
        1.67    0.9772466   0.22958555 
        1.68   0.98719704    0.2354163 
        1.69    1.0552595   0.26723205 
         1.7    1.0260098   0.26267412 
        1.71   0.98792927   0.24957919 
        1.72   0.98760235   0.24340869 
        1.73    1.0119346   0.24070754 
        1.74    1.0457294   0.23842953 
        1.75    1.0378636   0.21983765 
        1.76   0.97023499   0.17904193 
        1.77   0.97433036   0.16707409 
        1.78    1.0204212   0.17552739 
        1.79    1.0217301   0.17322458 
         1.8   0.98264611   0.15704612 
        1.81   0.93428912   0.13410767 
        1.82   0.92756441    0.1258001 
        1.83    1.0019929   0.15213976 
        1.84    1.0211404   0.16184468 
        1.85    1.0002658   0.15422051 
        1.86   0.97046961   0.13539719 
        1.87    0.9905579   0.12858533 
        1.88    1.0504064   0.13719701 
        1.89    1.0181915   0.11741292 
         1.9   0.97958515   0.10265816 
        1.91   0.98646905   0.10745352 
        1.92    1.0090182   0.11297419 
        1.93    1.0196698   0.10394518 
        1.94   0.97466754  0.065126216 
        1.95   0.94598269  0.030840843 
        1.96    1.0015271  0.037594312 
        1.97    1.0163462  0.044475583 
        1.98    0.9950789  0.044921382 
        1.99   0.98395579  0.037969937 
           2    1.0300268  0.033032862 
        2.01    1.0546669 0.0096708501 
        2.02    0.9904825  -0.04322205 
        2.03   0.97814378 -0.067348751 
        2.04    1.0028272 -0.070524606 
        2.05    1.0263386 -0.068151252 
        2.06    1.0050778 -0.080266702 
        2.07   0.94760708  -0.11263455 
        2.08   0.98253461  -0.11865473 
        2.09    1.0283353  -0.12327411 
         2.1    1.0114624  -0.14608235 
        2.11   0.97997569  -0.16553416 
        2.12    0.9857337  -0.16303736 
        2.13    1.0706939  -0.12121822 
        2.14    1.0316686  -0.11623507 
        2.15   0.97854678  -0.11231244 
        2.16   0.98072153  -0.09476719 
        2.17    1.0239043 -0.073546872 
        2.18    1.0282597 -0.072478753 
        2.19   0.94198746  -0.10534564 
         2.2   0.94662663    -0.099376 
        2.21   0.99501118 -0.070414568 
        2.22    1.0165638 -0.047780707 
        2.23    1.0063228 -0.041892492 
        2.24   0.96967562 -0.051048938 
        2.25   0.95588974 -0.055288407 
        2.26    1.0236688 -0.031120954 
        2.27    1.0268229 -0.029374745 
        2.28    0.9833906 -0.041169214 
        2.29    0.9710584 -0.042251678 
         2.3    1.0459625 -0.016752609 
        2.31    1.0494455 -0.029407781 
        2.32     1.002805 -0.067549817 
        2.33   0.98174342 -0.093762998 
        2.34   0.99441415 -0.098191168 
        2.35    1.0421358 -0.078737744 
        2.36    1.0447955 -0.070348983 
        2.37   0.95978318 -0.099795041 
        2.38   0.97371224  -0.10032879 
        2.39    1.0181961 -0.093111485 
         2.4    1.0181086 -0.097294977 
        2.41   0.97375403  -0.10846706 
        2.42   0.92543948  -0.11504432 
        2.43   0.98214548 -0.082736443 
        2.44    1.0242221 -0.063822616 
        2.45    1.0104267 -0.073934039 
        2.46   0.97327097 -0.095309658 
        2.47   0.97706201 -0.097852888 
        2.48    1.0394833 -0.069570681 
        2.49    1.0259337 -0.058565857 
         2.5   0.98689188 -0.051503328 
        2.51   0.98462874 -0.039659668 
        2.52     1.005322  -0.03866464 
        2.53    1.0162177 -0.054832839 
        2.54   0.96905256 -0.089990559 
        2.55   0.92983476  -0.11653405 
        2.56   0.99178352  -0.10808594 
        2.57    1.0190454  -0.11943597 
        2.58    1.0053004    -0.145048 
        2.59   0.96780187  -0.17051146 
         2.6   0.96886458  -0.16903264 
        2.61     1.038273  -0.12985288 
        2.62     1.017885  -0.12048636 
        2.63    0.9743972  -0.12575654 
        2.64   0.98209726  -0.12090401 
        2.65    1.0561952 -0.093403903 
        2.66    1.0402817 -0.094355456 
        2.67   0.99819062  -0.09448057 
        2.68    0.9764757 -0.077000008 
        2.69    1.0005258 -0.037576269 
         2.7    1.0334579 0.0038393438 
        2.71    1.0061846   0.01501177 
        2.72   0.97285039 0.0041155308 
        2.73   0.98035205 -0.021280983 
        2.74    1.0338798 -0.041375265 
        2.75    1.0263625 -0.073521553 
        2.76   0.97276245  -0.10648431 
        2.77   0.97215585  -0.10772864 
        2.78    1.0211493 -0.084634084 
        2.79    1.0228164 -0.078397936 
         2.8   0.99579432 -0.082208731 
        2.81   0.98981507 -0.080826478 
        2.82   0.99989862 -0.082345615 
        2.83    1.0109501 -0.092660319 
        2.84   0.99786428  -0.11572655 
        2.85   0.95556502  -0.14917032 
        2.86   0.98325534  -0.15291267 
        2.87    1.0312048  -0.14380546 
        2.88    1.0128521  -0.15537568 
        2.89   0.97649252   -0.1739323 
         2.9   0.98621861  -0.17788872 
        2.91    1.0772075  -0.15117299 
        2.92    1.0300194  -0.17468811 
        2.93   0.98073548  -0.19308535 
        2.94   0.98037486  -0.18597164 
        2.95    1.0201858  -0.15625922 
        2.96    1.0301574  -0.13068094 
        2.97   0.95401161  -0.13470371 
        2.98    0.9332298  -0.12220556 
        2.99   0.98240387 -0.090094449 
           3    1.0106033 -0.069567418 
        3.01    1.0144513 -0.060482002 
        3.02   0.98634186 -0.069449465 
        3.03   0.95253192 -0.086541685 
        3.04   0.99812827 -0.075529474 
        3.05     1.039492 -0.065691586 
        3.06    1.0042185  -0.08388158 
        3.07   0.97683024  -0.10040658 
        3.08   0.99332216  -0.10328567 
        3.09    1.0318878    -0.102205 
         3.1    1.0966009 -0.093265625 
        3.11    1.0344917   -0.1307349 
        3.12    0.9833862   -0.1600327 
        3.13   0.98180777  -0.16975213 
        3.14    1.0171283  -0.16290546 
        3.15    1.0311991  -0.15855958 
        3.16   0.97224082  -0.17853881 
        3.17   0.94903629  -0.18409182 
        3.18    0.9924451  -0.16084091 
        3.19    1.0029734  -0.14261987 
         3.2   0.99890157  -0.12131699 
        3.21   0.99879897 -0.092345458 
        3.22    1.0269557 -0.051416771 
        3.23    1.0375032 -0.024059197 
        3.24   0.97530195 -0.036945607 
        3.25   0.95964938 -0.044449528 
        3.26    1.0023827 -0.038146658 
        3.27    1.0133646 -0.045879207 
        3.28     1.000113 -0.058647948 
        3.29   0.98477127 -0.066955815 
         3.3   0.99570529 -0.063314207 
        3.31    1.0438507 -0.044760476 
        3.32    1.0183852 -0.051682652 
        3.33   0.96551436 -0.070884825 
        3.34    0.9815802 -0.071316107 
        3.35    1.0108702 -0.070663266 
        3.36    1.0073146 -0.078043397 
        3.37   0.99451809 -0.082528341 
        3.38   0.99245983  -0.07991204 
        3.39    1.0357339 -0.059020048 
         3.4     1.057039 -0.041982041 
        3.41   0.98361391 -0.055142868 
        3.42   0.97159865 -0.048768049 
        3.43    1.0043925 -0.040181663 
        3.44    1.0221356 -0.049763835 
        3.45   0.99605087  -0.07848204 
        3.46   0.92217466   -0.1244707 
        3.47   0.94819486  -0.13293918 
        3.48   0.99363311  -0.13573921 
        3.49    1.0147623  -0.14481755 
         3.5    1.0092481  -0.15932549 
        3.51   0.97790927  -0.18036231 
        3.52   0.97216446   -0.1882623 
        3.53    1.0336407  -0.16659366 
        3.54    1.0370762  -0.16599299 
        3.55   0.99130598  -0.18418731 
        3.56    0.9856377  -0.18619592 
        3.57   0.99990847  -0.17831653 
        3.58    1.0121374  -0.16762331 
        3.59     1.008127   -0.1600434 
         3.6   0.97518511  -0.16179689 
        3.61   0.97399615  -0.14904825 
        3.62    1.0214751  -0.11188693 
        3.63    1.0231466 -0.083432553 
        3.64   0.97351903 -0.069244112 
        3.65   0.93259443 -0.059582044 
        3.66    1.0033736 -0.027103998 
        3.67    1.0344709  -0.02694304 
        3.68   0.99807477 -0.056290765 
        3.69   0.96779972 -0.079521009 
         3.7   0.99761618 -0.076760872 
        3.71     1.049194 -0.065633694 
        3.72    1.0177486 -0.089325573 
        3.73   0.99513848  -0.11369452 
        3.74   0.99946278  -0.13025978 
        3.75    1.0054609  -0.14533532 
        3.76   0.99907448   -0.1596887 
        3.77   0.97826516  -0.16968145 
        3.78   0.98207339  -0.15889348 
        3.79    1.0307389  -0.12321519 
         3.8    1.0253726  -0.10859581 
        3.81   0.96785571  -0.11963604 
        3.82   0.96181889  -0.11945805 
        3.83    1.0556983 -0.091344847 
        3.84    1.0313015  -0.11868669 
        3.85    0.9824694   -0.1583434 
        3.86   0.97828298  -0.17691537 
        3.87    1.0167563  -0.16942902 
        3.88    1.0409051   -0.1552097 
        3.89   0.97053304  -0.16979745 
         3.9   0.94862084  -0.16924299 
        3.91   0.99750237  -0.14930077 
        3.92    1.0166753  -0.14306746 
        3.93    1.0008182  -0.14684471 
        3.94   0.96688458  -0.15554841 
        3.95   0.94921257  -0.15840248 
        3.96    1.0143349  -0.12532199 
        3.97    1.0271664  -0.10172606 
        3.98   0.98597219 -0.093836623 
        3.99   0.96419168 -0.088253755 
           4    1.0340603 -0.059459975 
        4.01    1.0441981 -0.053202974 
        4.02    0.9930863 -0.064546327 
        4.03   0.97949201 -0.063073954 
        4.04    1.0036705 -0.052519007 
        4.05    1.0369848 -0.040534315 
        4.06    1.0471556 -0.037454474 
        4.07   0.98134999 -0.070272799 
        4.08   0.96891558 -0.096169301 
        4.09    1.0169762  -0.10862959 
         4.1     1.038438  -0.12982489 
        4.11   0.97305155  -0.17532435 
        4.12   0.96155633  -0.18979556 
        4.13   0.99459319  -0.17841762 
        4.14    1.0165072  -0.16372869 
        4.15    1.0054538  -0.15793349 
        4.16   0.95494681  -0.16823315 
        4.17   0.94380645  -0.16730256 
        4.18     1.014947  -0.13723993 
        4.19    1.0167654  -0.13404928 
         4.2   0.98623113  -0.14192097 
        4.21   0.97000008  -0.14338024 
        4.22    1.0259885   -0.1155988 
        4.23    1.0438724  -0.10347598 
        4.24   0.99496288  -0.12216025 
        4.25   0.98295859  -0.13152709 
        4.26   0.99841581  -0.13065301 
        4.27    1.0098595   -0.1271719 
        4.28    1.0003188  -0.13048345 
        4.29   0.95279242  -0.15549792 
         4.3   0.97559606  -0.16498431 
        4.31    1.0341385  -0.16535659 
        4.32    1.0199281  -0.18716026 
        4.33   0.97725984  -0.21118433 
        4.34   0.98162463   -0.2116019 
        4.35   0.99773589  -0.20301841 
        4.36    1.0046699  -0.19665762 
        4.37     1.003444  -0.19764958 
        4.38   0.98160683  -0.21166503 
        4.39   0.95637068  -0.22767531 
         4.4    1.0022958  -0.20949694 
        4.41     1.033306  -0.18551303 
        4.42   0.99834423  -0.17610424 
        4.43   0.96581507  -0.16257583 
        4.44    1.0259227  -0.11639901 
        4.45     1.051924 -0.088835309 
        4.46   0.99394158  -0.10261838 
        4.47   0.97557743  -0.11113126 
        4.48    1.0051879  -0.10219435 
        4.49    1.0448004 -0.079562288 
         4.5    1.0081766 -0.078196005 
        4.51   0.95039552 -0.090028645 
        4.52   0.99112532 -0.075229859 
        4.53    1.0273638 -0.064043433 
        4.54    1.0057262 -0.062871685 
        4.55   0.97091598 -0.052857281 
        4.56    1.0007369 -0.014463733 
        4.57    1.0544067  0.027994805 
        4.58    1.0021594  0.019724092 
        4.59   0.97280854 0.0044510748 
         4.6   0.99890462 0.0011469128 
        4.61    1.0432604  0.005094486 
        4.62    1.0193159 -0.017345394 
        4.63   0.95835898 -0.056207139 
        4.64    0.9886373 -0.059587628 
        4.65    1.0301743  -0.05295196 
        4.66    1.0113963 -0.063892804 
        4.67   0.95748953 -0.087756962 
        4.68   0.97183665 -0.087640773 
        4.69    1.0542174 -0.058069256 
         4.7    1.0088027 -0.068290055 
        4.71   0.96557229 -0.069823474 
        4.72   0.98775186 -0.044922933 
        4.73    1.0290268 -0.016253895 
        4.74    1.0148142  -0.01585186 
        4.75   0.99556488 -0.024883184 
        4.76   0.99703851 -0.032524048 
        4.77    1.0040837 -0.042151216 
        4.78    1.0017259 -0.054434799 
        4.79   0.96293361  -0.07490484 
         4.8   0.96031956 -0.074203429 
        4.81    1.0191238 -0.043305386 
        4.82    1.0206214 -0.031650606 
        4.83   0.98732229 -0.040230505 
        4.84   0.97048632 -0.056553038 
        4.85    1.0193428 -0.057242644 
        4.86     1.051757 -0.060391999 
        4.87   0.99154314 -0.084476361 
        4.88   0.96940494 -0.081617265 
        4.89   0.99872345 -0.056664218 
         4.9    1.0213496 -0.039646315 
        4.91    1.0087359 -0.042022952 
        4.92   0.99906741 -0.044361277 
        4.93   0.99654798 -0.039999607 
        4.94   0.99926289 -0.025697333 
        4.95     1.021087 0.0021317459 
        4.96    1.0390344  0.028569923 
        4.97   0.98698611  0.022880978 
        4.98   0.96092888  0.014746816 
        4.99    1.0074095  0.019966149 
           5    1.0314437  0.016173807 
        5.01    1.0119639 0.0038977373 
        5.02     0.993124 -0.0051791411 
        5.03   0.98953173  -0.01309822 
        5.04    1.0155048 -0.011446123 
        5.05    1.0487479 0.00031977173 
        5.06   0.99500156 -0.011705773 
        5.07   0.96067009 -0.014888623 
        5.08   0.99511452 0.00091850995 
        5.09    1.0196518 0.0041023878 
         5.1    1.0094227 -0.010379721 
        5.11   0.99757874 -0.028394664 
        5.12     0.998475 -0.045680219 
        5.13    1.0028872 -0.061053438 
        5.14    1.0010202 -0.069612864 
        5.15   0.99831485 -0.069237079 
        5.16   0.99873952 -0.065627727 
        5.17    1.0018781 -0.059797368 
        5.18    1.0043034  -0.04836706 
        5.19    1.0040304 -0.031642292 
         5.2    1.0006061 -0.016176598 
        5.21   0.99902702 -0.0042703145 
        5.22    1.0055217 0.0037806805 
        5.23    1.0144479 -0.0020260574 
        5.24   0.99698878 -0.033024587 
        5.25    0.9663685 -0.069838416 
        5.26   0.98667922 -0.076114145 
        5.27     1.050056 -0.049221648 
        5.28    1.0220794 -0.042922879 
        5.29   0.98629652 -0.033148828 
         5.3   0.98828806 -0.012864283 
        5.31    1.0108507 0.0040228809 
        5.32    1.0261785  0.008920685 
        5.33   0.98402039 -0.010341492 
        5.34   0.95230089 -0.027502566 
        5.35    1.0044418 -0.017294345 
        5.36    1.0303157 -0.017257478 
        5.37    1.0034575 -0.032963556 
        5.38   0.98515575  -0.04222127 
        5.39   0.99187784 -0.037526347 
         5.4   0.99847288 -0.029514809 
        5.41    1.0019079 -0.028554293 
        5.42    1.0039068  -0.03839865 
        5.43   0.98848654 -0.058514723 
        5.44   0.95850739 -0.082611968 
        5.45   0.99339683 -0.077908779 
        5.46    1.0357766 -0.063569368 
        5.47    1.0066032 -0.067469065 
        5.48   0.96586605 -0.067533211 
        5.49   0.99064896 -0.039212322 
         5.5    1.0607277  0.006131715 
        5.51    1.0152493 0.0035676773 
        5.52   0.97106978 -0.0057428601 
        5.53   0.98518956 -0.0028376625 
        5.54    1.0345077 0.0078614378 
        5.55    1.0213669 -0.0031121318 
        5.56   0.95133639  -0.03314422 
        5.57    0.9652621 -0.032980645 
        5.58     1.003437 -0.028977776 
        5.59    1.0229803 -0.035813911 
         5.6     0.996064 -0.063347491 
        5.61   0.95025278    -0.103015 
        5.62   0.99208266  -0.11217308 
        5.63    1.0527264   -0.1111017 
        5.64    1.0124809  -0.14102441 
        5.65   0.97820148  -0.16229827 
        5.66   0.98823002  -0.16222465 
        5.67    1.0373817  -0.14211245 
        5.68    1.0472825  -0.13064248 
        5.69    0.9571972  -0.15181367 
         5.7   0.96772786  -0.12908295 
        5.71     1.013156 -0.087059819 
        5.72    1.0145578 -0.056962899 
        5.73   0.98588622 -0.039367863 
        5.74   0.95475058 -0.033454913 
        5.75   0.99010289 -0.013557333 
        5.76    1.0374079 0.0082017925 
        5.77    1.0072887 0.0041779324 
        5.78    0.9673888 -0.0042891378 
        5.79   0.99016868 0.0034781786 
         5.8    1.0595661  0.020999845 
        5.81    1.0216653 -0.004489809 
        5.82   0.96233556 -0.036027371 
        5.83    1.0023381 -0.028963342 
        5.84    1.0349795 -0.025763218 
        5.85    1.0046818 -0.050940114 
        5.86   0.96920335 -0.082515156 
        5.87   0.99198485 -0.092473028 
        5.88    1.0519621 -0.083807372 
        5.89    1.0241824  -0.10101236 
         5.9   0.95573066  -0.12858151 
        5.91   0.99158066  -0.11524756 
        5.92    1.0300699  -0.10116709 
        5.93    1.0083249  -0.10601298 
        5.94   0.95853864  -0.11784483 
        5.95   0.98289887    -0.105422 
        5.96    1.0525867 -0.084395735 
        5.97    1.0144202  -0.11406513 
        5.98   0.98054972   -0.1499939 
        5.99    0.9904703  -0.17255782 
           6    1.0326041  -0.18027485 
        6.01    1.0561062  -0.18617192 
        6.02   0.97854205   -0.2171981 
        6.03   0.96672264  -0.20956102 
        6.04    1.0072529  -0.17339691 
        6.05    1.0208092  -0.14349534 
        6.06   0.99466997  -0.12549573 
        6.07   0.95841761  -0.11498579 
        6.08    0.9466901  -0.10735623 
        6.09    1.0154514 -0.074837771 
         6.1    1.0278132 -0.056470313 
        6.11   0.98382836  -0.05107819 
        6.12    0.9624401 -0.040259383 
        6.13    1.0310356 -0.0041773076 
        6.14    1.0409783 0.0056599797 
        6.15   0.99718573 -0.0015213237 
        6.16    0.9790292 0.0028920443 
        6.17    1.0049452  0.015720889 
        6.18    1.0632891  0.027887164 
        6.19    1.0352129 0.0027211493 
         6.2   0.97396164  -0.03190699 
        6.21   0.98923449 -0.034610202 
        6.22    1.0268113 -0.023349323 
        6.23    1.0182324  -0.02129352 
        6.24   0.95529222 -0.036582199 
        6.25   0.96673471 -0.029506611 
        6.26    1.0134542 -0.019165688 
        6.27    1.0126596 -0.030993272 
        6.28   0.99110757 -0.047194845 
        6.29   0.97707278 -0.056871214 
         6.3    1.0107458 -0.045089474 
        6.31     1.053667 -0.023090916 
        6.32   0.99957572 -0.034697967 
        6.33   0.97222041 -0.039821116 
        6.34    0.9944133 -0.029580218 
        6.35    1.0145292 -0.017561811 
        6.36    1.0045691 -0.012127023 
        6.37   0.93905881 -0.027260239 
        6.38   0.95176651 -0.015515708 
        6.39    1.0098001   0.01035206 
         6.4     1.014202  0.012896034 
        6.41   0.99083186 0.00097710574 
        6.42   0.96785664 -0.014808196 
        6.43   0.99590348 -0.011543079 
        6.44    1.0496757 0.0078115502 
        6.45     1.009422 -0.00083166448 
        6.46    0.9725916 -0.0093431428 
        6.47   0.99075475 -0.0086562812 
        6.48    1.0126987 -0.016937896 
        6.49    1.0097989 -0.038211026 
         6.5   0.98148956 -0.068099298 
        6.51   0.91164751  -0.11186273 
        6.52   0.95725859  -0.10967661 
        6.53    1.0029115  -0.10311424 
        6.54     1.014876 -0.099210179 
        6.55   0.99564983 -0.096952078 
        6.56   0.96826202 -0.093580443 
        6.57     0.996042 -0.068595166 
        6.58    1.0401327 -0.033483986 
        6.59    1.0050794 -0.023086071 
         6.6   0.96852463  -0.01316974 
        6.61   0.98882974   0.01249718 
        6.62    1.0178626  0.035591001 
        6.63    1.0063786  0.036162976 
        6.64   0.98981883  0.024127045 
        6.65    0.9909346  0.007217837 
        6.66    1.0170849 -0.0089527519 
        6.67    1.0292151 -0.035156471 
        6.68   0.97726034 -0.085596916 
        6.69   0.96918201  -0.11103088 
         6.7    1.0109526  -0.10419099 
        6.71    1.0271601  -0.09326555 
        6.72   0.98216963 -0.098161198 
        6.73   0.90511329   -0.1175936 
        6.74   0.95522434 -0.094350442 
        6.75    1.0112198 -0.073356017 
        6.76    1.0269089 -0.064212108 
        6.77   0.98801128 -0.066942781 
        6.78   0.96086743 -0.062390927 
        6.79    1.0170151   -0.0272048 
         6.8    1.0404928 0.0030678167 
        6.81   0.99997687   0.01398801 
        6.82   0.98198391  0.020720784 
        6.83     1.006536  0.022600679 
        6.84     1.068044  0.029220041 
        6.85    1.0403742  0.011856957 
        6.86   0.97640409 -0.0017735375 
        6.87   0.98321392  0.020966754 
        6.88    1.0219777  0.055292914 
        6.89      1.02444  0.071966545 
         6.9   0.96140166  0.058155216 
        6.91   0.94937518  0.056230842 
        6.92    0.9959385  0.072344962 
        6.93    1.0078831  0.074040822 
        6.94    1.0031284  0.067384359 
        6.95   0.98268175  0.057405093 
        6.96     0.972336  0.057092891 
        6.97    1.0210974  0.081058881 
        6.98    1.0416976  0.090866668 
        6.99   0.98860103   0.06682189 
           7   0.97552301  0.052826948 
        7.01   0.99711438  0.052021037 
        7.02    1.0102269  0.053306984 
        7.03    1.0018041   0.04811036 
        7.04   0.95176582  0.020974236 
        7.05    0.9532471 0.0064246167 
        7.06    1.0229048  0.015162586 
        7.07    1.0235113 -0.0018380772 
        7.08   0.98937102 -0.026548312 
        7.09   0.97752619 -0.031912291 
         7.1     1.022411 -0.0025172312 
        7.11    1.0681366  0.043616985 
        7.12    1.0083947  0.064180739 
        7.13   0.97538106  0.097152395 
        7.14   0.99447742   0.13350144 
        7.15     1.034345   0.15615961 
        7.16    1.0129947   0.13782432 
        7.17   0.94482257  0.088603944 
        7.18   0.98021467  0.073596502 
        7.19    1.0243735  0.065840589 
         7.2    1.0159493  0.051275368 
        7.21   0.96204615  0.033779332 
        7.22   0.96676031  0.044398223 
        7.23    1.0435648  0.080730021 
        7.24    1.0182066  0.074196433 
        7.25   0.97671683   0.06099086 
        7.26   0.97980232   0.06532183 
        7.27    1.0342963  0.088693627 
        7.28    1.0371027  0.087679435 
        7.29   0.97016141  0.050912851 
         7.3   0.97776785  0.035814769 
        7.31      1.01307  0.030985062 
        7.32    1.0239009  0.023112663 
        7.33    0.9799298 0.0017263428 
        7.34   0.95499613 -0.011133162 
        7.35    1.0255917  0.010578362 
        7.36    1.0387045  0.011679425 
        7.37   0.99703151 -0.0044655495 
        7.38   0.97709017  -0.01357965 
        7.39    1.0057352 -0.011538932 
         7.4    1.0654009 -0.0027842095 
        7.41    1.0107712 -0.034773784 
        7.42   0.96873141 -0.055757085 
        7.43   0.99757346 -0.044197206 
        7.44    1.0276804 -0.026668683 
        7.45     1.006403 -0.029527966 
        7.46   0.94846072 -0.054724817 
        7.47   0.97325342 -0.055013467 
        7.48    1.0379872  -0.04139487 
        7.49    1.0125743 -0.060763708 
         7.5   0.97741102  -0.08342459 
        7.51   0.98379337 -0.088509468 
        7.52    1.0399734 -0.068233199 
        7.53    1.0423022 -0.061712448 
        7.54   0.96018521 -0.088383711 
        7.55    0.9761034  -0.08358907 
        7.56    1.0190709 -0.072450467 
        7.57    1.0221588 -0.074186768 
        7.58    0.9699548 -0.092929093 
        7.59    0.9511937 -0.098806056 
         7.6    1.0378921  -0.06519132 
        7.61    1.0278763 -0.065887907 
        7.62   0.97997962 -0.074994314 
        7.63   0.97296002 -0.066565493 
        7.64    1.0257101 -0.042812181 
        7.65    1.0403461 -0.046991455 
        7.66    1.0019399 -0.073853019 
        7.67   0.99536837 -0.079222543 
        7.68   0.99801098 -0.071225926 
        7.69    1.0066809 -0.054332314 
         7.7    1.0162638  -0.03462033 
        7.71    1.0032918 -0.022015826 
        7.72   0.96924484 -0.016713757 
        7.73   0.98217992 0.0017521015 
        7.74    1.0403992  0.025371072 
        7.75    1.0258124 0.0061679402 
        7.76   0.99328542  -0.02704238 
        7.77   0.99619995 -0.045049553 
        7.78    1.0042278 -0.055214007 
        7.79    1.0019383  -0.06249482 
         7.8   0.97316696 -0.074083526 
        7.81   0.96811427 -0.069305851 
        7.82    1.0203603  -0.03252081 
        7.83    1.0253152 -0.0058642051 
        7.84   0.98379754 0.00032582697 
        7.85   0.95839391 0.0010951071 
        7.86    1.0195875  0.023533668 
        7.87    1.0465938   0.02790115 
        7.88   0.99174736 0.0023613989 
        7.89   0.97169945 -0.0071684103 
         7.9    1.0035499 0.0042086577 
        7.91    1.0372958  0.013406299 
        7.92   0.98412977 -0.019931544 
        7.93   0.95192467 -0.056002117 
        7.94    1.0088522 -0.062794586 
        7.95    1.0345455 -0.075394705 
        7.96   0.99216017 -0.099835226 
        7.97    0.9670476   -0.1027868 
        7.98   0.98396606 -0.079567707 
        7.99   0.99853697 -0.056232826 
           8    1.0102391  -0.04031224 
        8.01     1.005346  -0.03159257 
        8.02   0.96610152 -0.030904517 
        8.03   0.96164416 -0.015443071 
        8.04    1.0225356  0.021787704 
        8.05    1.0229071  0.028974683 
        8.06    0.9898142  0.011723036 
        8.07   0.97998164 -0.010195928 
        8.08    1.0318602 -0.011130478 
        8.09    1.0696429 -0.0058685248 
         8.1   0.99767755  -0.02554874 
        8.11   0.97606602 -0.017025329 
        8.12    1.0015281 0.0077665318 
        8.13    1.0350883  0.029001837 
        8.14   0.99944239  0.017453476 
        8.15    0.9461757 -0.0063711387 
        8.16   0.98805835 0.0055510847 
        8.17    1.0185981   0.01965243 
        8.18    1.0059396  0.025123222 
        8.19    0.9739042  0.022591124 
         8.2   0.94310182  0.010595884 
        8.21   0.99359384   0.01960223 
        8.22    1.0394417  0.023860419 
        8.23     1.006009 0.0028701006 
        8.24   0.97259321 -0.012361291 
        8.25   0.98989569 -0.0054136474 
        8.26    1.0149825  0.004930805 
        8.27    1.0113992  0.002692393 
        8.28    1.0011243 -0.0038649052 
        8.29   0.99117668  -0.01062827 
         8.3   0.99334947 -0.011497133 
        8.31    1.0232266 0.0022524096 
        8.32    1.0330291  0.014618582 
        8.33   0.97601602 0.0013784984 
        8.34   0.96257882 -0.0056968713 
        8.35    1.0159687  0.002696214 
        8.36    1.0287112 -0.0055050777 
        8.37    1.0072812 -0.021944848 
        8.38   0.98595028 -0.032953984 
        8.39   0.98847195 -0.031366425 
         8.4    1.0418641 -0.007171246 
        8.41    1.0475322 0.0041995902 
        8.42   0.97565836 -0.011600765 
        8.43   0.97829764 -0.0027868223 
        8.44    1.0107779   0.01221978 
        8.45    1.0215223  0.018781042 
        8.46   0.96953062 0.0046401255 
        8.47   0.93346166 -0.0026479512 
        8.48   0.98861609  0.021907215 
        8.49    1.0093027  0.026548352 
         8.5    1.0083419  0.014338245 
        8.51    0.9856082 -0.014249281 
        8.52   0.96325599 -0.048322117 
        8.53   0.99910182 -0.062940639 
        8.54    1.0535927 -0.066246239 
        8.55    1.0092094 -0.095923947 
        8.56   0.97883191  -0.11019622 
        8.57   0.99247924  -0.10466131 
        8.58    1.0160817 -0.099732079 
        8.59    1.0148088  -0.10980671 
         8.6   0.94994715  -0.14293874 
        8.61   0.96243814  -0.13554407 
        8.62    1.0117483 -0.098202009 
        8.63    1.0082973 -0.068711669 
        8.64   0.98868941 -0.042817511 
        8.65   0.99033035 -0.011719718 
        8.66    1.0425841  0.035120783 
        8.67    1.0284579  0.045923591 
        8.68   0.97613748  0.024195083 
        8.69   0.98570788  0.013673877 
         8.7    1.0107475 0.0081879576 
        8.71    1.0103902 0.0012504887 
        8.72   0.98172526 -0.0078274309 
        8.73   0.90831786 -0.032920525 
        8.74   0.95715945 -0.012218749 
        8.75    1.0050448 0.0069957787 
        8.76    1.0211597 0.0085644435 
        8.77   0.99815644 -0.012525259 
        8.78   0.96550491 -0.038491176 
        8.79   0.99055123 -0.036160863 
         8.8    1.0581818 -0.0095068178 
        8.81    1.0227175 -0.018105658 
        8.82   0.98970669 -0.022704444 
        8.83    0.9893575 -0.013690173 
        8.84    1.0146565 0.0027954826 
        8.85    1.0557239  0.021310778 
        8.86    1.0199374  0.010353561 
        8.87   0.96734903 -0.0037930442 
        8.88   0.98837345  0.011532468 
        8.89    1.0289144  0.033193253 
         8.9    1.0149062  0.034229819 
        8.91   0.94029318  0.014946007 
        8.92   0.95414122  0.035089081 
        8.93   0.98966327  0.071003833 
        8.94    1.0138329    0.1076941 
        8.95      1.01271   0.12978326 
        8.96   0.97987798   0.12641576 
        8.97   0.94766782   0.11236071 
        8.98    1.0071158   0.12547733 
        8.99    1.0384265   0.12146185 
           9    1.0043402  0.087784163 
        9.01   0.98462518  0.055880683 
        9.02   0.99776001  0.034660629 
        9.03    1.0150266  0.020899105 
        9.04    1.0092322   0.01232075 
        9.05   0.97313763 0.0048099294 
        9.06   0.97925081  0.014041592 
        9.07    1.0293185  0.027694022 
        9.08    1.0269316  0.015934365 
        9.09   0.96860198 -0.0099491781 
         9.1   0.96844201 -0.0066250411 
        9.11   0.99204982 0.0068875732 
        9.12    1.0089506  0.015374667 
        9.13    1.0102702   0.01239034 
        9.14   0.97638773  -0.01228385 
        9.15   0.94823755 -0.042242838 
        9.16     1.011162 -0.040928322 
        9.17    1.0356883 -0.050609369 
        9.18    1.0023883 -0.076116936 
        9.19   0.98444527 -0.094979892 
         9.2   0.99619123  -0.10073831 
        9.21    1.0294009 -0.092218019 
        9.22     1.086908 -0.069569714 
        9.23    1.0137169 -0.097200984 
        9.24   0.98105629  -0.11024281 
        9.25   0.99285766  -0.10633073 
        9.26    1.0269518 -0.093956102 
        9.27    1.0247598 -0.098867653 
        9.28   0.95585032  -0.13292997 
        9.29   0.96869708  -0.13724562 
         9.3    1.0116039  -0.12638585 
        9.31    1.0118019  -0.12301629 
        9.32    0.9947412  -0.12411724 
        9.33   0.98722287  -0.12391179 
        9.34    1.0131536  -0.10343459 
        9.35    1.0381275 -0.071054336 
        9.36   0.99496978 -0.065193982 
        9.37   0.96380274  -0.07130076 
        9.38     1.007715 -0.067040767 
        9.39    1.0577094  -0.06054548 
         9.4    1.0003549 -0.079501754 
        9.41   0.97907519   -0.0674574 
        9.42   0.99846388 -0.031784693 
        9.43    1.0234498 0.0025103338 
        9.44    1.0123354   0.01053504 
        9.45    0.9647928 -0.0090178828 
        9.46   0.96734898  -0.01419422 
        9.47    1.0467805  0.017028457 
        9.48    1.0288724  0.024252676 
        9.49   0.98509425  0.031682282 
         9.5   0.97839215  0.055321884 
        9.51    1.0209073   0.09592522 
        9.52    1.0458313   0.12682539 
        9.53   0.95457527   0.10428051 
        9.54    0.9549584   0.10320237 
        9.55    1.0152184   0.11123773 
        9.56    1.0317561  0.089447066 
        9.57   0.99328449   0.03320169 
        9.58   0.98147438 -0.016929046 
        9.59     1.001076 -0.044267698 
         9.6    1.0078157 -0.058373708 
        9.61    1.0020006 -0.066769328 
        9.62   0.99902687 -0.072420478 
        9.63    1.0003973 -0.077404462 
        9.64    1.0009641  -0.08110452 
        9.65   0.98266655 -0.082455477 
        9.66   0.96807555 -0.066470214 
        9.67    1.0066088 -0.019203302 
        9.68    1.0286782  0.019479623 
        9.69   0.99781385  0.027308684 
         9.7   0.95259748  0.020798525 
        9.71   0.99154383  0.042801775 
        9.72    1.0467874  0.070667435 
        9.73    1.0051369   0.05800236 
        9.74   0.97550537   0.04120934 
        9.75   0.99560505  0.037026497 
        9.76    1.0479573  0.048385618 
        9.77    1.0575988  0.045784362 
        9.78   0.97540272 0.0028028845 
        9.79    0.9786938  -0.01004123 
         9.8     1.022047 -0.010162249 
        9.81    1.0300938 -0.024241297 
        9.82    0.9644478  -0.05879586 
        9.83   0.95901532 -0.058684644 
        9.84   0.99043397 -0.038817266 
        9.85    1.0078989 -0.025757798 
        9.86     1.008988 -0.024897763 
        9.87   0.98450988 -0.046454509 
        9.88   0.94900796 -0.086162424 
        9.89   0.99709167 -0.099105188 
         9.9     1.046128  -0.10821553 
        9.91      1.01571  -0.13729421 
        9.92   0.99148466   -0.1497861 
        9.93   0.98926322  -0.13568432 
        9.94    1.0054319 -0.095097459 
        9.95    1.0564318 -0.028180627 
        9.96    1.0423444 0.0096060136 
        9.97   0.96518695 -0.00090602637 
        9.98    0.9863818 0.0022566122 
        9.99    1.0264906 0.0020194791 
          10    1.0160026 -0.015644067 
       10.01   0.95569081 -0.045495834 
       10.02   0.96921869 -0.043567332 
       10.03    0.9987459 -0.037180422 
       10.04    1.0094166 -0.040473202 
       10.05    1.0003359 -0.049625382 
       10.06   0.96689003 -0.063823928 
       10.07   0.95818047  -0.06771663 
       10.08    1.0259654 -0.043409936 
       10.09    1.0286138  -0.04205019 
        10.1   0.98499515 -0.053236325 
       10.11   0.97526746 -0.050159273 
       10.12    1.0127845 -0.033893001 
       10.13    1.0745769 -0.013720746 
       10.14    1.1047798 -0.0032059624 
       10.15    1.0090027 -0.032535099 
       10.16    0.9731993 -0.029721736 
       10.17   0.98486848 -0.001575083 
       10.18    1.0240084   0.04072472 
       10.19    1.0194944   0.06031886 
        10.2   0.96764036  0.046547303 
       10.21   0.95032015  0.026229724 
       10.22    1.0450627  0.034673689 
       10.23    1.0401339 0.0025182706 
       10.24   0.99159943 -0.041730965 
       10.25   0.98209161  -0.06664913 
       10.26    1.0074736 -0.073307215 
       10.27    1.0498972 -0.066117809 
       10.28    1.0232946 -0.076910782 
       10.29   0.96147336 -0.094477439 
        10.3   0.98315694 -0.077234697 
       10.31    1.0232363 -0.055038859 
       10.32    1.0165014 -0.058339175 
       10.33   0.98764189  -0.07697218 
       10.34   0.98226672 -0.086874416 
       10.35    1.0577704 -0.058885225 
       10.36    1.0534262 -0.052383438 
       10.37   0.98237525 -0.064995045 
       10.38   0.97316895 -0.053403424 
       10.39    1.0150376 -0.024539788 
        10.4    1.0320444 -0.0050514362 
       10.41   0.97471284 -0.010892273 
       10.42   0.93742128 -0.0087463301 
       10.43   0.97390475  0.016699081 
       10.44    1.0042423  0.033545928 
       10.45    1.0213039  0.042008465 
       10.46   0.99705583   0.03302817 
       10.47   0.95614789  0.013825299 
       10.48   0.98976797  0.017591637 
       10.49    1.0510448  0.030587577 
        10.5    1.0159387 0.0096932616 
       10.51   0.98495634 -0.0070748845 
       10.52   0.99023767 -0.0087471118 
       10.53     1.021881 0.0046615527 
       10.54    1.0714902  0.032890712 
       10.55    1.0150461   0.02490679 
       10.56   0.96967245  0.020331961 
       10.57    0.9933637  0.038921888 
       10.58    1.0276925  0.062741253 
       10.59     1.008023  0.072917282 
        10.6   0.93262139  0.064467528 
       10.61   0.95668974  0.087062086 
       10.62   0.99763267  0.099587011 
       10.63     1.015937  0.087636559 
       10.64    1.0047091  0.059442881 
       10.65   0.96951586   0.02531713 
       10.66   0.97599633 0.0084459613 
       10.67    1.0544312   0.01287811 
       10.68    1.0402797  -0.02647195 
       10.69      1.00334 -0.073964542 
        10.7   0.99323512  -0.10355874 
       10.71   0.99391344  -0.11776917 
       10.72    1.0106371  -0.11683175 
       10.73    1.0344774  -0.10612158 
       10.74    1.0002645  -0.11325481 
       10.75   0.95980308  -0.12585304 
       10.76    0.9933054  -0.11188224 
       10.77    1.0356775 -0.089363416 
       10.78    1.0149322 -0.086064956 
       10.79    0.9922493 -0.082598729 
        10.8   0.98842059 -0.073465971 
       10.81    1.0227297  -0.05033162 
       10.82    1.0616974 -0.022817512 
       10.83   0.98902085 -0.031205273 
       10.84   0.96452775 -0.012922232 
       10.85   0.99620898  0.027420827 
       10.86    1.0209938  0.052036091 
       10.87    1.0099032  0.040545389 
       10.88    0.9599261 -0.0036017078 
       10.89   0.93709921  -0.04239862 
        10.9    1.0375873 -0.026362511 
       10.91    1.0298167 -0.038384746 
       10.92    0.9784144 -0.056643068 
       10.93    0.9727783 -0.052883013 
       10.94    1.0214292 -0.028290954 
       10.95    1.0348332 -0.020556077 
       10.96   0.98307903 -0.043939983 
       10.97   0.96731744 -0.057133124 
       10.98   0.99068148 -0.048881665 
       10.99    1.0160805 -0.027215686 
          11    1.0124042 -0.0047125895 
       11.01   0.97296635 0.0070082147 
       11.02   0.95723579  0.017921196 
       11.03    1.0283661  0.044856553 
       11.04    1.0355664  0.034020879 
       11.05   0.99424682 0.0033799901 
       11.06   0.98508166 -0.012441095 
       11.07    1.0022582 -0.020314468 
       11.08    1.0143262 -0.031021205 
       11.09    0.9715793 -0.057172465 
        11.1   0.94292738 -0.069543641 
       11.11     1.001433 -0.040357345 
       11.12    1.0206446 -0.018653213 
       11.13   0.99608814 -0.0098366267 
       11.14   0.96674044 -0.010920668 
       11.15   0.99184455 -0.010088557 
       11.16    1.0532961  -0.01323043 
       11.17    1.0182198 -0.055342209 
       11.18   0.98330851 -0.083987152 
       11.19   0.99003516 -0.080665464 
        11.2    1.0134601 -0.059984985 
       11.21    1.0381078 -0.035253535 
       11.22    1.0214316 -0.025994048 
       11.23   0.96180152 -0.034080234 
       11.24   0.97549947 -0.018622774 
       11.25    1.0250443  0.007872104 
       11.26    1.0170789  0.011514004 
       11.27   0.99468633 0.0026527723 
       11.28   0.99517767 -0.010096167 
       11.29     1.005171 -0.027585931 
        11.3    1.0066978 -0.046091708 
       11.31    1.0009815 -0.057583465 
       11.32   0.99529693 -0.058042392 
       11.33   0.99777267 -0.048824857 
       11.34    1.0424833 -0.022096915 
       11.35    1.0487642 -0.0086091562 
       11.36    0.9811013 -0.023608987 
       11.37   0.97510759 -0.020153023 
       11.38    1.0151089 -0.0059635555 
       11.39    1.0324326 -0.0022738598 
        11.4   0.95562417 -0.033945698 
       11.41   0.95155627  -0.04073995 
       11.42    1.0066074 -0.032556854 
       11.43    1.0248196 -0.042836642 
       11.44   0.99406348 -0.067295865 
       11.45   0.96095489 -0.084579734 
       11.46    1.0116561 -0.066637953 
       11.47    1.0574215 -0.049653282 
       11.48    1.0007945 -0.068615616 
       11.49   0.97484472 -0.071503408 
        11.5   0.99792209 -0.054020991 
       11.51    1.0376642 -0.029352129 
       11.52    1.0151738 -0.027473742 
       11.53    0.9483248 -0.046354982 
       11.54   0.98580199 -0.032936223 
       11.55    1.0276289 -0.019385864 
       11.56    1.0104104 -0.023288405 
       11.57   0.97403781 -0.032920198 
       11.58   0.98165141  -0.02842923 
       11.59    1.0617843 0.0033416618 
        11.6    1.0232645 -0.007242305 
       11.61   0.97617872 -0.018823208 
       11.62   0.98679818 -0.011357604 
       11.63    1.0284121 0.0045106326 
       11.64    1.0315466 0.0047459257 
       11.65   0.95386279 -0.029063689 
       11.66   0.97419563 -0.028694543 
       11.67    1.0238749 -0.016296021 
       11.68    1.0176399 -0.014974469 
       11.69   0.97538544 -0.013674824 
        11.7    0.9660869 0.0077099108 
       11.71    1.0456967   0.06204577 
       11.72    1.0261629  0.069266229 
       11.73   0.97491476  0.054830508 
       11.74   0.98024214  0.055131815 
       11.75    1.0306269  0.065413753 
       11.76    1.0392923  0.053990547 
       11.77   0.95668193 0.0049487602 
       11.78   0.98018971 -0.0027554043 
       11.79    1.0271186 0.0015761965 
        11.8    1.0192872 -0.010763651 
       11.81    0.9649491 -0.038118891 
       11.82   0.96837949 -0.042225323 
       11.83    1.0154194 -0.028659185 
       11.84    1.0120878 -0.032821137 
       11.85   0.99125682 -0.044518931 
       11.86   0.98339898 -0.056613849 
       11.87    1.0098861  -0.05599947 
       11.88    1.0413243 -0.042313765 
       11.89   0.99510487   -0.0447166 
        11.9   0.94820156 -0.044106897 
       11.91   0.98648973 -0.018384142 
       11.92    1.0105327 -0.0064480072 
       11.93    1.0048756 -0.0074969121 
       11.94    0.9864848 -0.010890018 
       11.95   0.97379931 -0.012248508 
       11.96     1.010883 0.0010234668 
       11.97    1.0410344 0.0084910059 
       11.98   0.99345041 -0.0098960859 
       11.99   0.96417265 -0.016115783 
          12   0.99191627 -0.0030576544 
       12.01    1.0100601 0.00076054523 
       12.02      1.00486 -0.0011819166 
       12.03   0.98958674  0.003935434 
       12.04   0.98426293  0.021476673 
       12.05    1.0241221  0.059492195 
       12.06    1.0325064  0.084272475 
       12.07   0.98117127  0.076753147 
       12.08   0.96782873   0.06721697 
       12.09    1.0241665  0.070202424 
        12.1    1.0619778   0.06130195 
       12.11    0.9671665 0.0073214611 
       12.12   0.97805121 0.0045510754 
       12.13     1.023298  0.022474692 
       12.14    1.0254656  0.028753985 
       12.15    0.9746358  0.019552394 
       12.16   0.96414469  0.030544554 
       12.17    1.0286439  0.072852265 
       12.18    1.0304649  0.090731099 
       12.19   0.99798912  0.086639386 
        12.2     0.982526   0.07301644 
       12.21    1.0027327   0.06186858 
       12.22    1.0534082  0.065302794 
       12.23     1.022791  0.050935576 
       12.24   0.96765369  0.035733179 
       12.25    0.9869748  0.047381406 
       12.26    1.0233785  0.060431315 
       12.27    1.0148195  0.054524426 
       12.28   0.93904056  0.022042181 
       12.29   0.94718023   0.01762942 
        12.3   0.99221616  0.022788204 
       12.31    1.0193756   0.02089951 
       12.32    1.0086202 0.0075674863 
       12.33   0.96294568  -0.01446947 
       12.34    0.9652808 -0.012427708 
       12.35    1.0423966  0.027229866 
       12.36    1.0194091  0.037871058 
       12.37   0.97742636  0.042098204 
       12.38   0.98342731  0.055702908 
       12.39    1.0449122  0.083366968 
        12.4    1.0473532  0.093970548 
       12.41   0.95579978  0.074123557 
       12.42   0.98152948    0.0892776 
       12.43    1.0307552  0.096253383 
       12.44    1.0209083  0.074278724 
       12.45   0.97174587  0.042154672 
       12.46   0.97923418  0.032333429 
       12.47    1.0113089  0.020615631 
       12.48    1.0184874 -0.014740414 
       12.49    1.0071451 -0.059356408 
        12.5   0.98886388 -0.094428213 
       12.51   0.98245678  -0.10471442 
       12.52    1.0219989 -0.076033434 
       12.53    1.0457723 -0.039182086 
       12.54   0.98717309  -0.03201863 
       12.55   0.96341078 -0.013508412 
       12.56   0.99871836    0.0240085 
       12.57    1.0133542  0.048040209 
       12.58    1.0024741  0.055245323 
       12.59   0.99263674  0.054899146 
        12.6    0.9955839  0.053162234 
       12.61    1.0236041  0.058367601 
       12.62    1.0263394  0.052604628 
       12.63   0.97751987  0.023565918 
       12.64   0.97255726 0.0068045831 
       12.65    1.0247945  0.013902451 
       12.66    1.0544184   0.02067526 
       12.67    0.9622502  -0.01701713 
       12.68   0.97152731 -0.019863358 
       12.69    1.0236178 -0.0054201537 
        12.7    1.0245279 0.00094261211 
       12.71   0.96993375 -0.0019348741 
       12.72    0.9605583  0.016780109 
       12.73    1.0381064  0.068961676 
       12.74    1.0220646   0.08600303 
       12.75   0.97902669  0.092517806 
       12.76   0.97601862     0.108212 
       12.77    1.0309038   0.13580159 
       12.78    1.0387108   0.13326621 
       12.79   0.99239981  0.099093395 
        12.8   0.99422155   0.08104154 
       12.81    1.0048956    0.0753244 
       12.82     1.003377  0.080407914 
       12.83   0.98706029  0.089485278 
       12.84    0.9841925   0.10331316 
       12.85     1.023176   0.12972755 
       12.86    1.0340915   0.14151482 
       12.87   0.97301708   0.11956649 
       12.88   0.96057591   0.11078827 
       12.89   0.99440028   0.11809631 
        12.9    1.0071553   0.11792153 
       12.91     1.003545   0.10958725 
       12.92   0.98541671  0.090033411 
       12.93   0.95599802  0.061071829 
       12.94   0.98971951  0.052240446 
       12.95    1.0441266  0.047299112 
       12.96    1.0143558  0.015268661 
       12.97   0.98133432 -0.0063555667 
       12.98   0.98916157 -0.0048562136 
       12.99    1.0068798 0.00071283636 
          13    1.0139093 -0.0048673284 
       13.01   0.97211279 -0.034649281 
       13.02   0.94660162 -0.055547978 
       13.03    1.0047551  -0.03567558 
       13.04    1.0217562 -0.023698776 
       13.05   0.99767637 -0.028316444 
       13.06   0.97381788 -0.037184932 
       13.07   0.99044198 -0.032944457 
       13.08    1.0468526 -0.015068898 
       13.09    1.0189887 -0.032454196 
        13.1   0.97548833 -0.058302705 
       13.11   0.98798504 -0.060228846 
       13.12    1.0163529 -0.048481057 
       13.13    1.0186591 -0.040988852 
       13.14   0.95580961  -0.05895327 
       13.15   0.96377498 -0.054557857 
       13.16     1.024366 -0.033854199 
       13.17    1.0234857  -0.03301322 
       13.18   0.98144067 -0.038051609 
       13.19   0.97293899 -0.022414658 
        13.2    1.0442483  0.026911285 
       13.21     1.058012  0.055389154 
       13.22    1.0017031   0.05198009 
       13.23   0.97427863  0.045192523 
       13.24    1.0006607  0.040756279 
       13.25    1.0473447  0.032576208 
       13.26    1.0042083 -0.0097609924 
       13.27   0.96587767 -0.044924099 
       13.28   0.99905461 -0.048203626 
       13.29     1.029144 -0.047247157 
        13.3   0.99810377  -0.06511813 
       13.31   0.94235001  -0.09298895 
       13.32   0.97698257 -0.088536169 
       13.33    1.0060056 -0.083328151 
       13.34    1.0087707 -0.077355504 
       13.35   0.98812739  -0.07092609 
       13.36   0.96175742 -0.068120547 
       13.37   0.99506412 -0.048909238 
       13.38    1.0413289 -0.026224759 
       13.39    1.0068649 -0.028134791 
        13.4   0.96768681 -0.023285104 
       13.41   0.98199692 0.0019401218 
       13.42    1.0008902  0.017029971 
       13.43    1.0099736   0.01553924 
       13.44   0.99756165 0.0047514825 
       13.45   0.94966237 -0.011529291 
       13.46   0.95573577 -0.0017576809 
       13.47    1.0237679  0.035516113 
       13.48    1.0135267  0.048710273 
       13.49   0.97854942  0.055654065 
        13.5   0.97854362  0.069156822 
       13.51     1.050822   0.10104429 
       13.52    1.0364396  0.098275324 
       13.53   0.99064453   0.09037908 
       13.54   0.98513106   0.10606484 
       13.55    1.0039713   0.13575354 
       13.56    1.0322347   0.16776816 
       13.57    1.0447163   0.18177723 
       13.58   0.98314376   0.15032275 
       13.59   0.96903322   0.12388501 
        13.6     1.014484    0.1129884 
       13.61     1.040848  0.093026301 
       13.62   0.97205909  0.036916936 
       13.63   0.96866997 0.0061524715 
       13.64     1.010781 -0.004718285 
       13.65    1.0246208  -0.01387702 
       13.66   0.97497136 -0.029667269 
       13.67     0.938411  -0.03068978 
       13.68    1.0106634  0.010699993 
       13.69    1.0165731   0.02359661 
        13.7   0.98963547  0.023262402 
       13.71   0.97496601  0.030863189 
       13.72    1.0119423  0.063158631 
       13.73    1.0411689  0.092045859 
       13.74   0.99212481   0.08741134 
       13.75    0.9534585  0.082802918 
       13.76   0.97546156  0.096874041 
       13.77    1.0055555    0.1094036 
       13.78    1.0230101   0.11031465 
       13.79    0.9967969  0.083566225 
        13.8   0.95600933   0.03950976 
       13.81   0.99373137  0.019404478 
       13.82    1.0635588  0.013727842 
       13.83    1.0289316 -0.019228292 
       13.84   0.98845203 -0.035943259 
       13.85    0.9777602 -0.028391745 
       13.86    1.0161677 -0.00050755428 
       13.87    1.0484022  0.013498818 
       13.88   0.97797972 -0.024885778 
       13.89   0.96505594 -0.044952798 
        13.9    1.0077169 -0.040507708 
       13.91    1.0275944 -0.036420587 
       13.92    0.9880085 -0.047902807 
       13.93    0.9463351 -0.058782063 
       13.94    1.0118998 -0.031465042 
       13.95    1.0373288 -0.023719499 
       13.96    0.9973443 -0.046463594 
       13.97   0.97535384  -0.06935727 
       13.98    1.0014278 -0.077257682 
       13.99     1.057248 -0.071794995 
          14    1.0189236 -0.098682171 
       14.01    0.9678124  -0.12759797 
       14.02   0.99441932  -0.12366058 
       14.03    1.0279573  -0.11121538 
       14.04    1.0079999  -0.11361064 
       14.05   0.94306971  -0.13388852 
       14.06   0.96892404  -0.12480168 
       14.07    1.0073339   -0.1138659 
       14.08     1.006855  -0.11347072 
       14.09   0.98958907  -0.10973191 
        14.1   0.97915483 -0.092227869 
       14.11    1.0184691 -0.047374817 
       14.12     1.041047 -0.0069137252 
       14.13   0.98651554 -0.0012345597 
       14.14   0.96039396 0.0073590138 
       14.15   0.98570288  0.028367973 
       14.16    1.0064253  0.038553362 
       14.17    1.0137828  0.033737007 
       14.18   0.98320947  0.012979605 
       14.19   0.94451017 -0.0050821305 
        14.2    1.0043472  0.016432451 
       14.21    1.0369635  0.025470126 
       14.22    1.0012069  0.012149547 
       14.23    0.9741859  0.010942238 
       14.24   0.99524372  0.037712931 
       14.25     1.053864  0.086797076 
       14.26    1.0249497   0.10443664 
       14.27   0.99593975   0.11545745 
       14.28   0.99510115   0.12361217 
       14.29    1.0099662   0.12183562 
        14.3    1.0139055   0.10652352 
       14.31   0.97284958  0.076201603 
       14.32   0.96267025  0.067279871 
       14.33    1.0251713  0.098789616 
       14.34    1.0325582   0.12405084 
       14.35   0.99711579   0.14452013 
       14.36   0.98335882   0.17084323 
       14.37    1.0073638    0.1960502 
       14.38    1.0628249   0.22200005 
       14.39    1.0453005    0.2170127 
        14.4   0.97631106   0.18653198 
       14.41   0.98822568   0.17849349 
       14.42    1.0263642   0.17717998 
       14.43    1.0214893   0.16213828 
       14.44   0.96089536   0.12650621 
       14.45   0.97624825   0.11401088 
       14.46    1.0141613   0.10486275 
       14.47    1.0156117  0.086588979 
       14.48   0.99749786  0.075517902 
       14.49   0.98825953  0.083099729 
        14.5   0.99790448   0.10341719 
       14.51    1.0431369   0.13322078 
       14.52    1.0901085   0.16384151 
       14.53    1.0092279   0.14841626 
       14.54   0.97949723   0.14961385 
       14.55   0.99393909   0.15760911 
       14.56    1.0334667   0.16458995 
       14.57    1.0198861   0.14615125 
       14.58   0.95860327   0.11048105 
       14.59   0.97953443   0.11477834 
        14.6    1.0104224   0.13878439 
       14.61    1.0054808   0.16517435 
       14.62   0.98910419   0.19219597 
       14.63    1.0156825   0.22547825 
       14.64    1.0645673   0.24775414 
       14.65    1.0075775   0.21027161 
       14.66   0.98197683   0.17618199 
       14.67   0.99685956   0.15885147 
       14.68    1.0274508   0.15320824 
       14.69    1.0313174   0.14185538 
        14.7   0.96958206   0.10522914 
       14.71   0.97185868  0.086034517 
       14.72    1.0253492   0.08152381 
       14.73    1.0294926  0.066409491 
       14.74   0.97134263  0.040687109 
       14.75   0.96350214  0.040030439 
       14.76   0.99209673  0.051997133 
       14.77    1.0235862   0.06582559 
       14.78    1.0114471  0.070002215 
       14.79   0.96134221  0.068700604 
        14.8   0.96770493  0.090079332 
       14.81    1.0346139   0.12891248 
       14.82    1.0147131   0.12521634 
       14.83   0.98261815  0.098314442 
       14.84   0.98774429  0.065520297 
       14.85    1.0422205  0.049809827 
       14.86    1.0612531  0.036660732 
       14.87   0.98661651 0.0048124578 
       14.88   0.98030812  0.005064978 
       14.89    1.0120177  0.018133766 
        14.9    1.0322136  0.028299732 
       14.91    0.9741068  0.014792365 
       14.92   0.94729898  0.016860251 
       14.93   0.99511854  0.048152788 
       14.94    1.0114608  0.069318838 
       14.95    1.0006316  0.081587436 
       14.96    0.9832677  0.086655431 
       14.97   0.98100005  0.088171348 
       14.98    1.0221908  0.099640696 
       14.99    1.0348884  0.098620286 
          15   0.97940764  0.073183963 
       15.01   0.96850555  0.070266214 
       15.02   0.99797406  0.094263883 
       15.03    1.0023625   0.12627021 
       15.04   0.99175962   0.16443838 
       15.05   0.99632316   0.20105281 
       15.06    1.0352638   0.23408802 
       15.07    1.0782188   0.25737505 
       15.08   0.99416162   0.22647293 
       15.09   0.97732974   0.21744913 
        15.1    1.0054725   0.22472672 
       15.11    1.0286666   0.23591988 
       15.12   0.99453076   0.22832514 
       15.13   0.94309447   0.20315946 
       15.14    0.9916922   0.19898206 
       15.15    1.0277532   0.18149971 
       15.16    1.0088489   0.15012896 
       15.17   0.98033131   0.12723649 
       15.18   0.98521464   0.12332891 
       15.19    1.0537152   0.14566348 
        15.2      1.04536   0.13744319 
       15.21   0.99655918   0.10985766 
       15.22   0.99376044  0.098219961 
       15.23    1.0035931  0.092948146 
       15.24    1.0117045  0.091153703 
       15.25   0.99274796  0.087621725 
       15.26   0.96474875  0.088176671 
       15.27   0.99758442   0.11284116 
       15.28    1.0380826    0.1413233 
       15.29    1.0063868   0.14472688 
        15.3   0.97566726   0.14825998 
       15.31   0.98604969   0.15982136 
       15.32    1.0025754   0.16130825 
       15.33    1.0106294   0.15522159 
       15.34   0.99144139     0.139993 
       15.35   0.94993758   0.11313254 
       15.36   0.98380949   0.10686678 
       15.37    1.0434277   0.11038587 
       15.38    1.0156512  0.090785563 
       15.39   0.98579909  0.075114915 
        15.4   0.99113271  0.071121416 
       15.41     1.011672  0.075472554 
       15.42    1.0437342  0.093292146 
       15.43    1.0402701   0.10582621 
       15.44   0.97329254  0.091201358 
       15.45   0.97265521  0.089495967 
       15.46    1.0228953  0.097773356 
       15.47    1.0293084  0.087143745 
       15.48   0.98500418  0.061752443 
       15.49   0.97642985  0.056634546 
        15.5   0.99530731  0.063331574 
       15.51      1.01885  0.070701223 
       15.52    1.0107708  0.068073995 
       15.53   0.96110682  0.055964209 
       15.54   0.96078293  0.064891615 
       15.55    1.0334184  0.096149098 
       15.56    1.0205018  0.089209193 
       15.57   0.98325951  0.072163077 
       15.58   0.98031502  0.066882727 
       15.59    1.0400587  0.084666088 
        15.6    1.0641301   0.09190624 
       15.61    1.0018136  0.070647442 
       15.62   0.99039241  0.069444413 
       15.63   0.99982602  0.073840076 
       15.64    1.0189922  0.078471565 
       15.65    1.0135031  0.066648112 
       15.66   0.96604541  0.028430515 
       15.67   0.97190194 0.0062688883 
       15.68    1.0377792  0.013494159 
       15.69    1.0359414 0.0080971484 
        15.7    1.0039074 0.0023350891 
       15.71    0.9911175 0.0090318613 
       15.72   0.99593709  0.023844129 
       15.73    1.0246755  0.048544484 
       15.74     1.038881  0.069720987 
       15.75   0.97464662  0.061899887 
       15.76   0.95682915  0.072967177 
       15.77    1.0001537   0.11114641 
       15.78    1.0087221   0.13873315 
       15.79   0.99791205   0.15168333 
        15.8   0.99485555   0.15119957 
       15.81    1.0159153   0.14187268 
       15.82    1.0321985   0.12071369 
       15.83   0.98827453  0.076452038 
       15.84   0.97058498  0.043158067 
       15.85     1.010146    0.0310856 
       15.86    1.0567789   0.02449353 
       15.87   0.98951597 -0.019029818 
       15.88   0.96380338  -0.04233118 
       15.89    1.0078869 -0.038072531 
        15.9    1.0324332 -0.033685649 
       15.91   0.98796684 -0.042483035 
       15.92   0.94757841 -0.046444488 
       15.93    1.0141969  -0.01657736 
       15.94    1.0363915 -0.0086494598 
       15.95   0.99408501 -0.020094814 
       15.96   0.96769355 -0.014746597 
       15.97   0.99957192  0.021821151 
       15.98    1.0330794  0.063711015 
       15.99    1.0067571  0.079321061 
          16   0.98717154   0.08560154 
       16.01   0.99464935  0.090585926 
       16.02    1.0053234  0.093209337 
       16.03    1.0059338   0.09387264 
       16.04   0.98259833  0.084676285 
       16.05   0.96432653  0.072708504 
       16.06    1.0113828  0.081897796 
       16.07    1.0400977  0.083586288 
       16.08   0.99497264  0.058867378 
       16.09   0.97241492  0.043212268 
        16.1   0.98992605  0.044329116 
       16.11    1.0083012   0.04675719 
       16.12    1.0129283    0.0365012 
       16.13   0.97744676 -0.0063441639 
       16.14   0.95275993  -0.05850282 
       16.15    1.0107371 -0.073725244 
       16.16    1.0370116 -0.076556857 
       16.17    1.0047299 -0.075054037 
       16.18   0.98579613 -0.059346742 
       16.19   0.99718943 -0.038605601 
        16.2    1.0387221  -0.01005744 
       16.21    1.0604862  0.014886332 
       16.22   0.97638388 0.00010151141 
       16.23   0.96661263  0.010642128 
       16.24    1.0115791  0.038372435 
       16.25    1.0254608  0.051113959 
       16.26   0.99101689  0.040851539 
       16.27   0.94352201  0.016195239 
       16.28   0.93324812 -0.0048957493 
       16.29    1.0176437 0.0087537157 
        16.3    1.0296948 0.0057721542 
       16.31    0.9839509 -0.008293345 
       16.32   0.96808941 -0.012122259 
       16.33     1.023685 0.0041483761 
       16.34    1.0517953 0.0079571371 
       16.35    1.0132389 -0.0069050706 
       16.36   0.99553999 -0.0064072426 
       16.37   0.99048008 -0.0014324019 
       16.38    1.0077268 0.0083908991 
       16.39    1.0320726  0.024614811 
        16.4    1.0023124  0.029546927 
       16.41   0.95339283   0.03137473 
       16.42   0.98604296  0.066660646 
       16.43     1.017996   0.11463342 
       16.44   0.99649821   0.15801958 
       16.45    0.9829199   0.20466499 
       16.46    1.0240062   0.25085767 
       16.47    1.0563036   0.26704206 
       16.48   0.99686294   0.22457895 
       16.49   0.99408207   0.18312348 
        16.5    1.0110376   0.13764863 
       16.51    1.0039951  0.085820083 
       16.52   0.97189728  0.031975065 
       16.53    0.9756016 -0.0046325529 
       16.54    1.0507294 -0.0064636973 
       16.55    1.0434427  -0.02551527 
       16.56   0.99403203 -0.052092395 
       16.57   0.99039125 -0.059856334 
       16.58    1.0049796 -0.056103332 
       16.59      1.02238 -0.038839869 
        16.6    1.0148899 -0.014984721 
       16.61   0.96810273 0.0012436493 
       16.62   0.96948537  0.027026172 
       16.63    1.0292323  0.059226155 
       16.64    1.0237306  0.053838682 
       16.65   0.99272367  0.031293098 
       16.66   0.98967656   0.01494618 
       16.67    1.0020895 0.0063758841 
       16.68    1.0044122 0.0027348686 
       16.69   0.99906172 0.0062930651 
        16.7   0.99555239  0.016194922 
       16.71    1.0068233  0.033517475 
       16.72    1.0474234  0.064474929 
       16.73    1.0164488  0.071490689 
       16.74    0.9626739  0.071497207 
       16.75   0.98103961  0.097562024 
       16.76    1.0155395   0.12570451 
       16.77    1.0096365   0.13209645 
       16.78   0.99669785   0.12699034 
       16.79   0.99396648    0.1172494 
        16.8    1.0091563   0.10879717 
       16.81    1.0319823   0.10176612 
       16.82   0.99899828  0.074629743 
       16.83   0.96611904  0.049808446 
       16.84   0.99624985  0.048566568 
       16.85    1.0479582  0.055239871 
       16.86    1.0109742  0.031926333 
       16.87   0.96695165  0.011393339 
       16.88   0.98848387  0.017357919 
       16.89    1.0229079  0.025504911 
        16.9    1.0176982  0.017487562 
       16.91   0.96622078 -0.0046001742 
       16.92   0.96157388 -0.0021067603 
       16.93    1.0339164  0.038159016 
       16.94      1.01872  0.044651279 
       16.95   0.98518484  0.028549138 
       16.96   0.98333627 0.0071826387 
       16.97    1.0322128 -0.00038326377 
       16.98    1.0630572 -0.0070201988 
       16.99   0.98543905 -0.040745632 
          17   0.97549283 -0.036144361 
       17.01    1.0057292 -0.010191603 
       17.02    1.0259946  0.010801478 
       17.03   0.99294378 0.0037064967 
       17.04   0.93312844 -0.019026763 
       17.05   0.97390838 0.0028264066 
       17.06    1.0004114  0.029461721 
       17.07    1.0057313  0.052047569 
       17.08    1.0036506  0.068106179 
       17.09   0.99713587  0.073255524 
        17.1   0.99253761  0.067285408 
       17.11    1.0018876  0.057862044 
       17.12    1.0145112  0.047868441 
       17.13   0.99844666  0.029144024 
       17.14   0.96442611 0.0050390248 
       17.15   0.98431025 0.0044106926 
       17.16     1.045011  0.028142471 
       17.17    1.0182614  0.028982206 
       17.18   0.98518706  0.029886891 
       17.19   0.99076665   0.03406492 
        17.2    1.0098682  0.028650132 
       17.21    1.0104203  0.012042108 
       17.22   0.94451564   -0.0291494 
       17.23   0.95471418 -0.039810646 
       17.24    1.0113942 -0.021463727 
       17.25    1.0119599 -0.0065050387 
       17.26   0.98588557  0.010973171 
       17.27   0.97587764  0.035361458 
       17.28    1.0336692   0.07700713 
       17.29    1.0359771  0.085567733 
        17.3   0.98297118   0.06378113 
       17.31   0.98008486  0.054646934 
       17.32    1.0043771  0.051634882 
       17.33    1.0123854  0.041643144 
       17.34    1.0036276  0.027269929 
       17.35   0.99930596  0.018461219 
       17.36   0.99937717  0.014838965 
       17.37    1.0000181  0.014387501 
       17.38    1.0009431  0.016756686 
       17.39    1.0022274  0.022544713 
        17.4     1.000048  0.030603125 
       17.41   0.99752923  0.039999422 
       17.42    1.0033723  0.049025817 
       17.43    1.0142332  0.055539124 
       17.44    1.0023958  0.055205151 
       17.45    0.9684421  0.050080898 
       17.46   0.98137433    0.0581696 
       17.47    1.0422889  0.078311004 
       17.48    1.0233933  0.068366167 
       17.49   0.98618984  0.054740753 
        17.5   0.98902417  0.057280446 
       17.51    1.0056424  0.061342635 
       17.52    1.0143036  0.059228597 
       17.53   0.97977867  0.042306253 
       17.54   0.95033039   0.02596829 
       17.55    1.0089418  0.032150852 
       17.56    1.0379468  0.017180813 
       17.57    1.0051627 -0.013667952 
       17.58   0.98538067 -0.020224345 
       17.59   0.99025972 7.1672651e-06 
        17.6     1.002468  0.030756846 
       17.61    1.0108325  0.055100629 
       17.62    1.0204961  0.065865713 
       17.63    1.0068039  0.054201781 
       17.64   0.97608085  0.034930552 
       17.65   0.98094234  0.039063788 
       17.66    1.0257805  0.071392843 
       17.67    1.0288873  0.094679759 
       17.68   0.95898077  0.080205173 
       17.69   0.95210155  0.068622141 
        17.7   0.99492444  0.062023875 
       17.71    1.0147238   0.05140742 
       17.72    1.0002307  0.043364558 
       17.73   0.96192247  0.034734032 
       17.74    0.9685508  0.037960438 
       17.75    1.0404662  0.060047545 
       17.76    1.0241671  0.048587427 
       17.77   0.98173128  0.028700711 
       17.78   0.98537264  0.023314512 
       17.79     1.008802  0.023152652 
        17.8     1.011831  0.018087599 
       17.81   0.98556165 0.0062100188 
       17.82   0.90481569 -0.027616964 
       17.83   0.96433778 -0.014359308 
       17.84    1.0184375 -0.010585001 
       17.85    1.0227981 -0.026177826 
       17.86   0.98053839   -0.0533564 
       17.87   0.96728971 -0.060367048 
       17.88    1.0264149 -0.030579287 
       17.89    1.0415108 -0.010191552 
        17.9    1.0042741 -0.0068728871 
       17.91   0.98450444 0.00070393436 
       17.92   0.99760865  0.015059118 
       17.93    1.0497363  0.041170268 
       17.94    1.0457762  0.048095921 
       17.95   0.96544531  0.028811149 
       17.96   0.97936156  0.043315605 
       17.97    1.0223677  0.059883937 
       17.98    1.0223774  0.051280418 
       17.99   0.96763149  0.019433205 
          18   0.95590165  0.005762246 
       18.01    1.0221968  0.027416424 
       18.02    1.0210614  0.031913849 
       18.03   0.98599823   0.02860584 
       18.04   0.97386509   0.03399395 
       18.05    1.0140249  0.056394387 
       18.06    1.0353538  0.071307318 
       18.07   0.98053333  0.061564274 
       18.08   0.94310563  0.060932482 
       18.09   0.97595712  0.083367102 
        18.1    1.0011637  0.094616387 
       18.11    1.0191337  0.096647699 
       18.12    1.0024405  0.080963892 
       18.13   0.95921613  0.051300532 
       18.14   0.97641719   0.04102063 
       18.15    1.0506096  0.050663215 
       18.16      1.02557  0.023083906 
       18.17    0.9906119 -0.007096339 
       18.18   0.98871609 -0.023123511 
       18.19    1.0104657 -0.025126579 
        18.2    1.0565946 -0.010248559 
       18.21    1.0325133 -0.014251076 
       18.22   0.96996434 -0.030239009 
       18.23   0.98390855 -0.020039091 
       18.24    1.0240398 -0.0015776695 
       18.25    1.0187915  0.002939501 
       18.26   0.94044116 -0.019673105 
       18.27   0.95028294 -0.016175643 
       18.28   0.99677227  -0.00605774 
       18.29    1.0181569 -0.0013398439 
        18.3    1.0002357 0.00070261673 
       18.31   0.95641367 0.00016671868 
       18.32   0.96910446  0.022884958 
       18.33    1.0320222  0.073512886 
       18.34    1.0076324   0.10617527 
       18.35   0.96718249   0.14031803 
       18.36   0.99357741   0.19338106 
       18.37     1.040776   0.23753246 
       18.38    1.0117401   0.22821247 
       18.39   0.98559245   0.20191686 
        18.4   0.99215829   0.18042203 
       18.41    1.0347624   0.16572234 
       18.42    1.0791038   0.14065031 
       18.43    1.0101381  0.064727973 
       18.44   0.99110786 0.0098071486 
       18.45   0.99167257 -0.026286301 
       18.46    1.0015777 -0.038969533 
       18.47    1.0156017 -0.030585636 
       18.48    1.0127323  -0.01766275 
       18.49   0.97775698 -0.013275661 
        18.5   0.96547761 0.0037590883 
       18.51    1.0198071  0.057031104 
       18.52    1.0193178   0.10097072 
       18.53   0.98569635   0.12997151 
       18.54   0.98565197   0.14961822 
       18.55    1.0673326   0.17293736 
       18.56    1.0420722   0.13860158 
       18.57   0.99885557  0.095248589 
       18.58    0.9898182  0.068639714 
       18.59   0.99808702  0.054989696 
        18.6    1.0196618  0.057048542 
       18.61    1.0242292  0.065330895 
       18.62   0.97523859  0.061196885 
       18.63   0.95932656  0.069177382 
       18.64    1.0208972   0.10007871 
       18.65    1.0287566  0.096725107 
       18.66    1.0037432  0.061013847 
       18.67   0.99237153  0.016597525 
       18.68   0.99751854 -0.021664767 
       18.69   0.99756175 -0.049532159 
        18.7   0.98062565 -0.067261059 
       18.71   0.98809494 -0.059874389 
       18.72    1.0215418 -0.030026014 
       18.73    1.0223077 -0.0058888564 
       18.74   0.96649964 -0.0076532332 
       18.75   0.94712632 -0.011139687 
       18.76    1.0271139 0.0061926445 
       18.77    1.0289265 -0.013026446 
       18.78   0.99063632 -0.042567184 
       18.79   0.97636739 -0.055597812 
        18.8    1.0117489  -0.04360876 
       18.81     1.066368 -0.018331104 
       18.82    0.9968985 -0.034808156 
       18.83   0.96859922 -0.033764869 
       18.84    1.0023441 -0.011378168 
       18.85    1.0293653 0.0041393146 
       18.86    1.0009582 -0.0074974415 
       18.87   0.95270608 -0.029752306 
       18.88   0.98580776 -0.018275121 
       18.89    1.0342715 0.0031242817 
        18.9     1.010638 -0.0016171427 
       18.91   0.97810831 -0.0086084252 
       18.92   0.98255697 0.0009359133 
       18.93    1.0352728  0.031988683 
       18.94    1.0326892  0.041504744 
       18.95   0.96611128  0.016503326 
       18.96   0.97128321 0.0068512224 
       18.97    1.0058118 0.0034103348 
       18.98    1.0247689 -0.0070673629 
       18.99   0.99104505 -0.037964967 
          19   0.95191108 -0.066807501 
       19.01   0.99876283 -0.054594916 
       19.02    1.0355697 -0.038902052 
       19.03    1.0054289 -0.046221174 
       19.04   0.97700327 -0.055260349 
       19.05   0.99151095 -0.052039237 
       19.06     1.049273 -0.032284289 
       19.07     1.027562 -0.039816214 
       19.08    0.9634766 -0.062160229 
       19.09   0.98442092 -0.051715045 
        19.1    1.0195818 -0.034091566 
       19.11    1.0165002 -0.027547194 
       19.12   0.95985787 -0.041119444 
       19.13   0.94301158 -0.044382033 
       19.14    1.0228215 -0.016106274 
       19.15     1.019201  -0.02342609 
       19.16   0.98542637 -0.046813354 
       19.17   0.97645875 -0.064996826 
       19.18    1.0231557 -0.061455371 
       19.19    1.0598389 -0.053743841 
        19.2   0.98460225 -0.077072091 
       19.21      0.97162 -0.067321066 
       19.22    1.0030769 -0.040039031 
       19.23    1.0248849 -0.021419468 
       19.24   0.99793976 -0.027827724 
       19.25   0.93859504 -0.055667801 
       19.26    0.9787868 -0.054836745 
       19.27    1.0230671 -0.057813016 
       19.28    1.0071305 -0.080155099 
       19.29   0.97767956 -0.098765321 
        19.3   0.98205607 -0.095736881 
       19.31    1.0431261 -0.066337054 
       19.32     1.035368 -0.067467175 
       19.33   0.99152669 -0.089379032 
       19.34   0.99251279 -0.096483847 
       19.35    1.0059548  -0.09766306 
       19.36    1.0130617 -0.099310931 
       19.37   0.98615857  -0.11195709 
       19.38   0.95778592  -0.12333885 
       19.39    1.0037589  -0.10485313 
        19.4    1.0376989 -0.088552187 
       19.41    1.0058926 -0.095393323 
       19.42   0.98676627 -0.098971806 
       19.43   0.99507331 -0.095129265 
       19.44    1.0046402 -0.089049097 
       19.45    1.0023937 -0.081405644 
       19.46   0.98116706 -0.076078032 
       19.47   0.95911096 -0.073673054 
       19.48    1.0065372 -0.051137359 
       19.49    1.0349257  -0.03639314 
        19.5   0.99457474 -0.042480598 
       19.51   0.96019069 -0.043789932 
       19.52    1.0028946 -0.016231753 
       19.53    1.0444323  0.013426883 
       19.54    1.0105997  0.016778751 
       19.55   0.97625263  0.014702814 
       19.56   0.98805437  0.017606056 
       19.57    1.0415475  0.026512497 
       19.58    1.0288392 0.0077453597 
       19.59   0.96183662 -0.030540699 
        19.6   0.98514832 -0.033041255 
       19.61    1.0225688 -0.029454975 
       19.62    1.0161449  -0.04056555 
       19.63   0.95248465 -0.067470482 
       19.64   0.95380476 -0.062068509 
       19.65    1.0022417 -0.033491933 
       19.66     1.002379 -0.021425969 
       19.67   0.99846377 -0.015153094 
       19.68    1.0015404 -0.016607139 
       19.69    1.0092194 -0.025047508 
        19.7   0.99945177 -0.040615756 
       19.71   0.97142332 -0.054366935 
       19.72   0.98111645 -0.042091227 
       19.73    1.0355799 -0.0029096144 
       19.74    1.0214856  0.010723887 
       19.75   0.98307569 0.00066040401 
       19.76    0.9888428 -0.011091378 
       19.77    1.0038698 -0.021442742 
       19.78    1.0036131  -0.02241383 
       19.79   0.98805874 -0.014985769 
        19.8   0.97788185 -0.0061453468 
       19.81    1.0157125 0.0089881149 
       19.82    1.0405688 0.0094631908 
       19.83   0.98815437 -0.020949638 
       19.84   0.96883269 -0.034974792 
       19.85   0.99561025 -0.026577512 
       19.86    1.0105235 -0.019349816 
       19.87    1.0033398 -0.018066399 
       19.88   0.99368479 -0.015177569 
       19.89   0.99579198 -0.0084753934 
        19.9     1.002939 -0.0032483624 
       19.91    1.0030622 -0.0044325459 
       19.92   0.99900164 -0.0073362632 
       19.93   0.99327524 -0.0051754271 
       19.94   0.99571136  0.012838432 
       19.95    1.0156022  0.053743078 
       19.96    1.0282422   0.10188503 
       19.97   0.99532662    0.1235644 
       19.98   0.95164338   0.11269543 
       19.99   0.99801433   0.10769128 
          20    1.0498312  0.093590302 
Loop time of 8.37361 on 1 procs for 20000 steps with 864 atoms

Performance: 206362.661 tau/day, 2388.457 timesteps/s
99.7% CPU use with 1 MPI tasks x no OpenMP threads

MPI task timing breakdown:
Section |  min time  |  avg time  |  max time  |%varavg| %total
---------------------------------------------------------------
Pair    | 7.3583     | 7.3583     | 7.3583     |   0.0 | 87.88
Neigh   | 0.57007    | 0.57007    | 0.57007    |   0.0 |  6.81
Comm    | 0.16135    | 0.16135    | 0.16135    |   0.0 |  1.93
Output  | 0.017299   | 0.017299   | 0.017299   |   0.0 |  0.21
Modify  | 0.20901    | 0.20901    | 0.20901    |   0.0 |  2.50
Other   |            | 0.05754    |            |       |  0.69

Nlocal:    864 ave 864 max 864 min
Histogram: 1 0 0 0 0 0 0 0 0 0
Nghost:    2285 ave 2285 max 2285 min
Histogram: 1 0 0 0 0 0 0 0 0 0
Neighs:    32360 ave 32360 max 32360 min
Histogram: 1 0 0 0 0 0 0 0 0 0

Total # of neighbors = 32360
Ave neighs/atom = 37.4537
Neighbor list builds = 545
Dangerous builds = 0
Total wall time: 0:00:08
