LAMMPS (18 Jun 2019)
LAMMPS (18 Jun 2019)
Total wall time: 0:00:00
LAMMPS (18 Jun 2019)
Total wall time: 0:00:00
Reading data file ...
  orthogonal box = (0 0 0) to (20.5197 10.2599 10.2599)
  1 by 1 by 1 MPI processor grid
  reading atoms ...
LAMMPS (18 Jun 2019)
  864 atoms
  reading velocities ...
LAMMPS (18 Jun 2019)
LAMMPS (18 Jun 2019)
LAMMPS (18 Jun 2019)
Total wall time: 0:00:00
Total wall time: 0:00:00
Total wall time: 0:00:00
Total wall time: 0:00:00
  864 velocities
  read_data CPU = 0.004457 secs
Neighbor list info ...
  update every 1 steps, delay 10 steps, check yes
  max neighbors/atom: 2000, page size: 100000
  master list distance cutoff = 3.3
  ghost atom cutoff = 3.3
  binsize = 1.65, bins = 13 7 7
  1 neighbor lists, perpetual/occasional/extra = 1 0 0
  (1) pair lj/cut, perpetual
      attributes: half, newton on
      pair build: half/bin/atomonly/newton
      stencil: half/bin/3d/newton
      bin: standard
LAMMPS (18 Jun 2019)
Setting up Verlet run ...
  Unit style    : lj
  Current step  : 0
  Time step     : 0.001
Total wall time: 0:00:00
Per MPI rank memory allocation (min/avg/max) = 2.8 | 2.8 | 2.8 Mbytes
Time Temp Press 
           0    0.3379911    -2.869697 
        0.01   0.42170029   -2.8282849 
        0.02   0.56687462   -2.7405203 
        0.03   0.74447703   -2.6054233 
        0.04   0.90534823    -2.427515 
        0.05   0.96619159   -2.2237937 
        0.06   0.88969626   -2.0035027 
        0.07   0.81387054   -1.7172579 
        0.08   0.83681985   -1.3220614 
        0.09   0.86801586  -0.86256416 
         0.1   0.88011914  -0.40606642 
        0.11   0.89734676 -0.016364003 
        0.12   0.92278369   0.26385389 
        0.13   0.92891894   0.42807258 
        0.14   0.90015602   0.50571942 
        0.15   0.87655923   0.54795046 
        0.16   0.89280451   0.58936726 
        0.17   0.92127875   0.62752197 
        0.18   0.91356852    0.6444018 
        0.19   0.88430593   0.64043948 
         0.2   0.88488907   0.63031654 
        0.21   0.91480277    0.6165618 
        0.22   0.92033249    0.5902234 
        0.23   0.88878002   0.55546158 
        0.24   0.87529816   0.53234664 
        0.25   0.90333196   0.52584964 
        0.26   0.92621268   0.52135069 
        0.27   0.90155676   0.50742386 
        0.28   0.87224502   0.49868833 
        0.29   0.89038422    0.5067991 
         0.3   0.92846311   0.51380826 
        0.31    0.9189418   0.49473499 
        0.32   0.87788049   0.46596068 
        0.33   0.87695898   0.46441724 
        0.34   0.91994572    0.4916391 
        0.35   0.92706057    0.5085573 
        0.36   0.88995295   0.50114428 
        0.37   0.87965058   0.49020745 
        0.38   0.89543676   0.47745172 
        0.39   0.91220223   0.45897742 
         0.4   0.90731834   0.43022304 
        0.41   0.87846977   0.39384157 
        0.42   0.87498472   0.37622888 
        0.43   0.93317885   0.40075109 
        0.44   0.93474625   0.42957546 
        0.45   0.88538132    0.4541441 
        0.46   0.87888157   0.48722044 
        0.47   0.90000179   0.51043131 
        0.48   0.91222023   0.51753778 
        0.49   0.89999876   0.51696072 
         0.5   0.84928195   0.51020569 
        0.51    0.8312392   0.51476996 
        0.52   0.89689681    0.5381616 
        0.53   0.91890542   0.53300601 
        0.54   0.90364085   0.51270945 
        0.55   0.87192125   0.49066632 
        0.56   0.88581011   0.48589298 
        0.57   0.95080764   0.50025545 
        0.58   0.92620855   0.48615368 
        0.59   0.89318785   0.47791868 
         0.6   0.88763669   0.48857821 
        0.61    0.9071345   0.51123835 
        0.62   0.94340575   0.53392215 
        0.63   0.92735129   0.53087838 
        0.64   0.86611395   0.51051075 
        0.65   0.88466112   0.51686977 
        0.66   0.92596907   0.52597544 
        0.67   0.91553181   0.51857237 
        0.68    0.8671541   0.50240102 
        0.69   0.87165379    0.5062362 
         0.7   0.95396301   0.54422547 
        0.71   0.90802553   0.54759712 
        0.72   0.86552005   0.55696178 
        0.73    0.8913365   0.57828623 
        0.74   0.92928991   0.58949538 
        0.75   0.90969083   0.58105568 
        0.76   0.88170525   0.57872542 
        0.77   0.88515671   0.58956607 
        0.78    0.8989312   0.59485264 
        0.79   0.91260528   0.58726314 
         0.8   0.89886927   0.57342491 
        0.81   0.84822513    0.5589039 
        0.82   0.87370394   0.57626253 
        0.83   0.91897871   0.59459747 
        0.84   0.90853105   0.58704598 
        0.85   0.88172606   0.57375558 
        0.86   0.88106787   0.56621634 
        0.87   0.94489741   0.57049096 
        0.88   0.94087518   0.54346712 
        0.89   0.89454987   0.50663628 
         0.9   0.89258257   0.48754362 
        0.91   0.90725655   0.46878197 
        0.92   0.91368125    0.4481387 
        0.93   0.87642861   0.42110085 
        0.94   0.86233958   0.41118701 
        0.95    0.9163057   0.43054071 
        0.96   0.92470007    0.4359246 
        0.97   0.89781806   0.42925699 
        0.98   0.88789204   0.42385286 
        0.99   0.90328642   0.42224999 
           1   0.95820783   0.44113403 
        1.01   0.95141633   0.45428189 
        1.02   0.88183817   0.45602498 
        1.03   0.87817685   0.47918746 
        1.04   0.91503354   0.50268487 
        1.05   0.92508911   0.50144274 
        1.06   0.87955612   0.47343027 
        1.07   0.84689688   0.44630174 
        1.08   0.90466866   0.44632962 
        1.09   0.91970068   0.41906605 
         1.1   0.90047506   0.36667757 
        1.11   0.88223492   0.31071191 
        1.12   0.89039418   0.27473492 
        1.13   0.92086423     0.266379 
        1.14    0.9309087   0.27291947 
        1.15   0.87199494   0.26741891 
        1.16   0.85669574   0.27893688 
        1.17   0.90006993     0.317545 
        1.18   0.90028352   0.35595348 
        1.19   0.89221841   0.39871093 
         1.2   0.91046103   0.44179926 
        1.21   0.94476646   0.48085227 
        1.22   0.90480325    0.4864351 
        1.23   0.85498083   0.47499915 
        1.24   0.89337509   0.47892922 
        1.25   0.92384036   0.47288751 
        1.26   0.90541703   0.45712805 
        1.27   0.87286569   0.44882986 
        1.28   0.89261543   0.46867969 
        1.29   0.94641674   0.50556191 
         1.3   0.90359382   0.49884757 
        1.31   0.87321515    0.4750945 
        1.32   0.90067155   0.45063039 
        1.33   0.94526621   0.43021424 
        1.34   0.90252339     0.394849 
        1.35   0.85602959    0.3767897 
        1.36   0.89058399   0.39451088 
        1.37    0.9197351   0.39977946 
        1.38   0.91115737   0.37064531 
        1.39   0.87811261    0.3202864 
         1.4   0.85833885    0.2785263 
        1.41   0.90783284   0.27645276 
        1.42   0.93704393   0.28222215 
        1.43   0.89337006    0.2685416 
        1.44   0.86784258   0.25855605 
        1.45   0.90508497    0.2672433 
        1.46   0.93406091   0.27262087 
        1.47   0.91206737   0.26048968 
        1.48   0.89221666   0.24772084 
        1.49    0.8887366   0.23876449 
         1.5   0.92004868   0.24098892 
        1.51   0.94908176   0.24154246 
        1.52   0.88504103   0.20773604 
        1.53   0.86768418   0.18953889 
        1.54   0.90115216   0.18593999 
        1.55   0.91969293   0.17440994 
        1.56   0.89927099   0.14825397 
        1.57    0.8425514   0.10761007 
        1.58   0.84711624  0.087814135 
        1.59   0.91819697  0.095043494 
         1.6   0.91097843  0.078160063 
        1.61   0.88236531  0.052660237 
        1.62   0.88090011  0.034884687 
        1.63   0.92513756  0.042371426 
        1.64   0.93393012  0.054679365 
        1.65   0.86151185  0.049743491 
        1.66   0.84972819  0.065467001 
        1.67   0.88200418  0.087334977 
        1.68   0.91210495  0.099541866 
        1.69   0.91684492  0.097041782 
         1.7   0.88328699  0.075004462 
        1.71   0.85386074  0.048776339 
        1.72   0.91415608  0.053780387 
        1.73    0.9376392  0.050983113 
        1.74   0.89534117  0.036812404 
        1.75    0.8745845   0.04151924 
        1.76   0.89968433  0.069629566 
        1.77   0.92808738   0.10580663 
        1.78   0.90698471    0.1280721 
        1.79   0.89182395    0.1483559 
         1.8   0.89631431   0.16466805 
        1.81   0.91699928   0.17604934 
        1.82   0.91914639   0.17708123 
        1.83   0.86923952   0.15900315 
        1.84   0.85910619   0.15245014 
        1.85   0.91629004   0.16677938 
        1.86   0.91709572   0.16015633 
        1.87   0.89140479     0.148301 
        1.88   0.88039254   0.14327368 
        1.89   0.92912559   0.15871235 
         1.9   0.94756527   0.16258864 
        1.91   0.89537823   0.14103891 
        1.92   0.88414874   0.13309431 
        1.93    0.9013295   0.13032653 
        1.94   0.92157541   0.12235697 
        1.95   0.90560528  0.094297328 
        1.96   0.85906841  0.051046541 
        1.97   0.88631275  0.037067424 
        1.98   0.92793038   0.03541353 
        1.99   0.91198867   0.02109165 
           2   0.88770477  0.010039869 
        2.01   0.88866027  0.014030064 
        2.02   0.89541843  0.029345391 
        2.03   0.90113149  0.056008619 
        2.04   0.91444403  0.088899172 
        2.05   0.95844593   0.12206092 
        2.06   0.92160781   0.11046787 
        2.07   0.87624302  0.087294826 
        2.08   0.89236315   0.08123994 
        2.09   0.92163669  0.079370736 
         2.1   0.91178611  0.069718359 
        2.11   0.84551929  0.044557099 
        2.12   0.86688922  0.051260603 
        2.13    0.9046591  0.061386368 
        2.14   0.90732524  0.061090278 
        2.15   0.89304426  0.060823873 
        2.16   0.88167178  0.065144322 
        2.17    0.9147429  0.081245903 
        2.18   0.93786975   0.07951936 
        2.19   0.89346353  0.039263983 
         2.2   0.87454465 0.0084227357 
        2.21   0.89349209 0.0037199892 
        2.22   0.90371527   0.01379987 
        2.23   0.89855236  0.031870314 
        2.24   0.90154598  0.055687427 
        2.25     0.953934  0.097930616 
        2.26   0.91831213   0.10589055 
        2.27   0.87108896  0.097053948 
        2.28   0.88876475  0.091839129 
        2.29    0.9220936  0.077988906 
         2.3   0.91418868  0.048129943 
        2.31   0.89775328  0.020074258 
        2.32   0.89858169 0.00024364387 
        2.33   0.90220832 -0.018519508 
        2.34   0.90147636 -0.036828684 
        2.35    0.8910142   -0.0534265 
        2.36   0.88666679 -0.062936632 
        2.37   0.91296874 -0.056769254 
        2.38   0.93015187 -0.049151187 
        2.39   0.88506169 -0.060737544 
         2.4   0.84797603 -0.068657512 
        2.41     0.893884 -0.046875857 
        2.42   0.90556201 -0.039434961 
        2.43   0.89836465 -0.040356673 
        2.44   0.89548018 -0.045837536 
        2.45   0.91210779  -0.05619536 
        2.46   0.92963978 -0.078503835 
        2.47    0.8916573  -0.12847728 
        2.48    0.8705668  -0.17092587 
        2.49   0.90207569  -0.18550696 
         2.5   0.93265336  -0.18355654 
        2.51   0.88517806  -0.19149569 
        2.52   0.83923568  -0.18664895 
        2.53   0.88642345  -0.14363934 
        2.54   0.91099175  -0.11258585 
        2.55   0.90807448 -0.097012488 
        2.56   0.88695264 -0.091635995 
        2.57   0.87413442 -0.086764072 
        2.58   0.91751072 -0.068126819 
        2.59   0.93533494 -0.070211112 
         2.6   0.89187966  -0.10623507 
        2.61   0.88000702  -0.13857895 
        2.62   0.89950881  -0.16046957 
        2.63   0.90799297  -0.17644552 
        2.64   0.89639509  -0.18502581 
        2.65   0.86061481  -0.19174542 
        2.66   0.85631226   -0.1802887 
        2.67   0.91080468  -0.14168425 
        2.68   0.91371163  -0.11844874 
        2.69   0.88805539  -0.10307661 
         2.7   0.87398612 -0.084604987 
        2.71   0.92277673 -0.045303423 
        2.72   0.92840151 -0.024554373 
        2.73   0.88468914 -0.025432217 
        2.74   0.87117539 -0.018465178 
        2.75   0.93389223  0.014924229 
        2.76   0.94079314  0.023013446 
        2.77   0.89785103 0.0022514202 
        2.78    0.8783636 -0.022824079 
        2.79   0.90212869 -0.039027589 
         2.8   0.94480153 -0.045754498 
        2.81   0.90942065 -0.075805188 
        2.82   0.86297718  -0.10688025 
        2.83   0.89304403  -0.10959547 
        2.84   0.92238328  -0.10930128 
        2.85    0.9056463  -0.12054484 
        2.86   0.85439116  -0.14495636 
        2.87    0.8326479  -0.16587514 
        2.88   0.91506441  -0.15409492 
        2.89   0.92405728  -0.17131494 
         2.9   0.88791839   -0.2025627 
        2.91   0.87310843  -0.22350094 
        2.92   0.91333617   -0.2212773 
        2.93    0.9452676  -0.21445783 
        2.94   0.88795689    -0.232013 
        2.95   0.86546784  -0.23366514 
        2.96   0.89433769  -0.22207363 
        2.97   0.92448591   -0.2198184 
        2.98   0.91063725  -0.24234856 
        2.99   0.86580623  -0.27817447 
           3   0.87733862  -0.28749811 
        3.01    0.9369236  -0.26950282 
        3.02   0.92281811   -0.2720981 
        3.03   0.88793632  -0.28040544 
        3.04   0.87787779   -0.2820334 
        3.05   0.91660084  -0.26562172 
        3.06   0.93610525  -0.25024427 
        3.07   0.87617249   -0.2579743 
        3.08   0.84631228  -0.25185919 
        3.09   0.87450051  -0.22495029 
         3.1   0.90774573  -0.19572227 
        3.11   0.91670031  -0.17235555 
        3.12   0.89302218  -0.16215627 
        3.13   0.85871068  -0.16297892 
        3.14   0.88827551  -0.14620605 
        3.15   0.93205827  -0.12681333 
        3.16   0.90725599  -0.13579755 
        3.17   0.87649296  -0.15180165 
        3.18   0.89280015  -0.15729189 
        3.19   0.97037924  -0.14701742 
         3.2   0.94319357  -0.17830557 
        3.21   0.90293862  -0.20686887 
        3.22   0.87948908  -0.21790336 
        3.23   0.89247419  -0.20876605 
        3.24   0.93387674  -0.18909736 
        3.25   0.91901071  -0.19424446 
        3.26   0.85237021  -0.22250524 
        3.27   0.87290876   -0.2208845 
        3.28   0.90899882  -0.21342165 
        3.29   0.91564621  -0.21181813 
         3.3   0.88476094  -0.21862243 
        3.31   0.84316287  -0.23048151 
        3.32   0.89215307  -0.21342912 
        3.33   0.92775763  -0.20689109 
        3.34   0.90212756  -0.22545162 
        3.35   0.87363106  -0.24445788 
        3.36   0.89473107  -0.24426001 
        3.37   0.95551055    -0.226196 
        3.38   0.92372859  -0.23419407 
        3.39   0.89191438  -0.22695142 
         3.4   0.88499353  -0.19868335 
        3.41   0.90973344  -0.15584953 
        3.42   0.93126786  -0.11957861 
        3.43   0.88715174    -0.118178 
        3.44   0.84349998  -0.12810305 
        3.45   0.89074769  -0.11187361 
        3.46   0.91571531  -0.10493262 
        3.47   0.90394256  -0.10853212 
        3.48   0.87455756  -0.11864405 
        3.49   0.86325368  -0.12888928 
         3.5   0.92298572  -0.12026395 
        3.51    0.9361266  -0.13254906 
        3.52   0.89077948  -0.16649891 
        3.53    0.8830448  -0.18627573 
        3.54   0.90225077  -0.19322163 
        3.55   0.91193233  -0.19754425 
        3.56   0.88063874   -0.2110191 
        3.57   0.83614274  -0.22694986 
        3.58   0.88982782  -0.20594029 
        3.59   0.91669775  -0.19404139 
         3.6   0.90363933  -0.19277092 
        3.61   0.87377227  -0.19502929 
        3.62   0.87823792  -0.18540745 
        3.63   0.93562061  -0.15378988 
        3.64   0.91791612  -0.14279611 
        3.65   0.87386166  -0.13411968 
        3.66   0.87926603  -0.10788753 
        3.67   0.90711841 -0.080587982 
        3.68   0.90301931 -0.070073232 
        3.69   0.89489573 -0.067141489 
         3.7   0.89896175 -0.072608785 
        3.71   0.91975054  -0.08759099 
        3.72   0.91841499  -0.12467321 
        3.73   0.87716069  -0.18407563 
        3.74   0.88217185  -0.22456875 
        3.75   0.92251969  -0.23951206 
        3.76   0.95188758  -0.23773554 
        3.77   0.88900895  -0.25260206 
        3.78   0.85953018   -0.2493835 
        3.79   0.90087895  -0.22382019 
         3.8   0.92250883  -0.21337791 
        3.81    0.9027192  -0.22583354 
        3.82    0.8750936  -0.24705341 
        3.83    0.8676419  -0.26338272 
        3.84   0.91487168  -0.25513341 
        3.85   0.93334478  -0.24566948 
        3.86   0.88630798  -0.24911222 
        3.87   0.86528438  -0.24318474 
        3.88   0.91260753  -0.22586367 
        3.89   0.93254479  -0.23743534 
         3.9   0.91289469  -0.27223176 
        3.91   0.88899826  -0.30320765 
        3.92   0.88465328  -0.31551588 
        3.93   0.92220317  -0.30175069 
        3.94   0.95540852   -0.2786198 
        3.95   0.88949773   -0.2823527 
        3.96   0.87153997  -0.25976795 
        3.97   0.89542978  -0.21860147 
        3.98   0.91550556  -0.18183797 
        3.99   0.90628083  -0.16281895 
           4   0.85908252  -0.16672584 
        4.01    0.8401753  -0.16665271 
        4.02   0.90347426  -0.13506295 
        4.03   0.91094401  -0.11797036 
        4.04   0.89341676  -0.10447671 
        4.05   0.88244514 -0.091354562 
        4.06   0.91906503 -0.069008439 
        4.07   0.94129003 -0.059168233 
        4.08   0.88619311 -0.081020651 
        4.09   0.87230237 -0.091440396 
         4.1   0.89884789  -0.09685586 
        4.11   0.91727793  -0.11384381 
        4.12   0.90004145  -0.14812777 
        4.13   0.84741246  -0.19984965 
        4.14   0.87419991  -0.22290906 
        4.15   0.90936843  -0.23749054 
        4.16   0.90600635  -0.25262325 
        4.17   0.88648919  -0.25873225 
        4.18    0.8822829  -0.24840085 
        4.19   0.92698301  -0.20934727 
         4.2   0.92858811  -0.17613978 
        4.21   0.87496635  -0.16175003 
        4.22   0.86335224  -0.14022064 
        4.23   0.94254038  -0.09328894 
        4.24   0.91656571 -0.092555244 
        4.25   0.87512988   -0.1046937 
        4.26   0.88405182  -0.10787696 
        4.27   0.93177033  -0.10141101 
        4.28    0.9244425  -0.11156758 
        4.29   0.85629263   -0.1407613 
         4.3   0.87466956   -0.1448452 
        4.31   0.91667536  -0.15476471 
        4.32   0.92378609  -0.18424087 
        4.33   0.87962067  -0.22647496 
        4.34     0.873181  -0.24231183 
        4.35   0.89456385   -0.2376658 
        4.36   0.90376952  -0.23143729 
        4.37   0.90246033  -0.22459333 
        4.38    0.8915125  -0.21592675 
        4.39   0.88321439  -0.20392312 
         4.4   0.90978297  -0.18130151 
        4.41   0.92949623  -0.16257321 
        4.42   0.89048821   -0.1631095 
        4.43   0.85406717   -0.1623021 
        4.44   0.89982348  -0.13158532 
        4.45   0.91805333  -0.10993433 
        4.46   0.89662926  -0.10140507 
        4.47   0.88140757 -0.094666016 
        4.48   0.90805587   -0.0827307 
        4.49   0.94972449 -0.075462262 
         4.5   0.89959631  -0.10567908 
        4.51   0.87386282    -0.121796 
        4.52    0.8978632  -0.11320502 
        4.53   0.92078136  -0.10139721 
        4.54   0.90490856  -0.10779905 
        4.55   0.84752916  -0.14012713 
        4.56   0.87469863  -0.14809031 
        4.57   0.91352276  -0.15209829 
        4.58   0.90895258  -0.16834052 
        4.59   0.88840271   -0.1868316 
         4.6   0.87798152  -0.19873443 
        4.61    0.9167368  -0.18669339 
        4.62   0.94080675  -0.17334241 
        4.63   0.89053314  -0.18594176 
        4.64   0.87178423   -0.1893435 
        4.65   0.89411382  -0.17607818 
        4.66   0.90547846  -0.16347548 
        4.67   0.90339104  -0.16028776 
        4.68   0.89885053  -0.16675342 
        4.69    0.8807232  -0.17797827 
         4.7   0.85525728  -0.18755813 
        4.71    0.9015548  -0.16981226 
        4.72   0.93133442  -0.15845415 
        4.73   0.89913411  -0.16319053 
        4.74   0.86828724  -0.15654937 
        4.75   0.89619949  -0.12538137 
        4.76   0.94380911 -0.094897935 
        4.77   0.92286426  -0.09896226 
        4.78   0.88621119  -0.11229292 
        4.79   0.87763401   -0.1154182 
         4.8    0.9146601   -0.1014996 
        4.81   0.93870567 -0.089334317 
        4.82   0.87446002  -0.10206176 
        4.83   0.85612595 -0.088784236 
        4.84   0.89029231 -0.053088041 
        4.85   0.91119205 -0.025655527 
        4.86   0.90782121 -0.015206063 
        4.87   0.88095176 -0.027703223 
        4.88   0.84929429 -0.057089455 
        4.89   0.90015118  -0.06226162 
         4.9   0.93615749 -0.072817314 
        4.91   0.90693728  -0.10641562 
        4.92    0.8869565  -0.13766675 
        4.93   0.89734486  -0.16085993 
        4.94   0.91274756  -0.18225505 
        4.95   0.89192078   -0.2072922 
        4.96   0.85620307  -0.22266127 
        4.97   0.89139389  -0.19776249 
        4.98   0.92158297  -0.16497824 
        4.99   0.90310003  -0.14511164 
           5   0.86917047  -0.12876136 
        5.01   0.87558412 -0.097985738 
        5.02   0.92974554 -0.052348961 
        5.03    0.9161266 -0.040888676 
        5.04   0.87670711 -0.049926538 
        5.05   0.88048811 -0.051009636 
        5.06   0.95231545 -0.030694134 
        5.07   0.94428268 -0.039444396 
        5.08   0.90478388 -0.051593031 
        5.09   0.88270586 -0.049765191 
         5.1   0.89305485 -0.034237021 
        5.11   0.93581323 -0.010773601 
        5.12   0.92589256 -0.015282428 
        5.13   0.85959953 -0.051769907 
        5.14   0.88428282 -0.063422709 
        5.15   0.92211676 -0.073387733 
        5.16    0.9136706 -0.093045747 
        5.17   0.86114614  -0.11703563 
        5.18   0.86662135  -0.11164173 
        5.19   0.93654195  -0.08394642 
         5.2    0.9158924 -0.097913702 
        5.21   0.87917561  -0.11867454 
        5.22   0.87923806  -0.11664131 
        5.23   0.92076359 -0.087054887 
        5.24   0.92825525 -0.067303648 
        5.25   0.87323994 -0.080969195 
        5.26   0.84837868 -0.094386964 
        5.27   0.88053644 -0.092027445 
        5.28   0.90956642 -0.092744765 
        5.29    0.9195748 -0.099262319 
         5.3   0.88724697  -0.11867044 
        5.31   0.86324892  -0.13338869 
        5.32   0.91641597  -0.11840899 
        5.33   0.94252682  -0.11054623 
        5.34   0.90453788  -0.12376829 
        5.35   0.88651342  -0.13464913 
        5.36   0.89886041  -0.14140533 
        5.37   0.93298468  -0.13793029 
        5.38   0.94964509  -0.12897795 
        5.39   0.88161332  -0.14166461 
         5.4   0.87124524  -0.13390066 
        5.41   0.91195661  -0.11922529 
        5.42   0.92793128   -0.1272475 
        5.43   0.89894124  -0.15843506 
        5.44   0.88933529   -0.1805746 
        5.45   0.90064976  -0.18929587 
        5.46   0.90741121  -0.19242076 
        5.47   0.89617368   -0.1959026 
        5.48   0.86993688  -0.20061673 
        5.49   0.88261272  -0.18538909 
         5.5   0.93192104  -0.15181975 
        5.51   0.91600827  -0.14350573 
        5.52   0.87961479  -0.14943693 
        5.53   0.88499192  -0.14889863 
        5.54   0.90673776  -0.15116703 
        5.55    0.9073169  -0.16331728 
        5.56   0.89467956   -0.1732646 
        5.57   0.88378513   -0.1733843 
        5.58   0.90537966  -0.15372745 
        5.59   0.94107231  -0.12379168 
         5.6   0.90261487    -0.121171 
        5.61   0.85866085  -0.12495499 
        5.62     0.882806  -0.11006642 
        5.63   0.90804724   -0.1010534 
        5.64    0.9104593 -0.099455784 
        5.65   0.88147079  -0.10153871 
        5.66   0.83925569  -0.10412767 
        5.67   0.89055622 -0.074435507 
        5.68   0.92288903 -0.057348336 
        5.69   0.90319345 -0.063757912 
         5.7   0.87505602 -0.075661943 
        5.71   0.88898449 -0.071255658 
        5.72   0.95161396 -0.042392694 
        5.73   0.92302522 -0.041369181 
        5.74   0.88894021 -0.042289133 
        5.75   0.89218733 -0.035797999 
        5.76   0.91181686 -0.029599232 
        5.77   0.92359653 -0.025759101 
        5.78   0.88495336  -0.03466875 
        5.79   0.86020929 -0.031806684 
         5.8   0.90362008 0.0014254296 
        5.81   0.92119681    0.0272999 
        5.82   0.89859347  0.037572938 
        5.83   0.88382894  0.044136953 
        5.84    0.9226492  0.056707514 
        5.85   0.96867728  0.055860111 
        5.86    0.9143542 0.0074528329 
        5.87   0.89223962 -0.025579909 
        5.88   0.89022222 -0.043230727 
        5.89     0.908798 -0.049554943 
         5.9   0.93320512 -0.049922836 
        5.91   0.89930674 -0.064611584 
        5.92   0.86237087 -0.081512541 
        5.93   0.89779617 -0.084237682 
        5.94   0.93330789 -0.098287462 
        5.95   0.91883686  -0.12983859 
        5.96   0.90307774  -0.15133332 
        5.97    0.8907069  -0.16237446 
        5.98   0.89229126  -0.16255036 
        5.99   0.92576658  -0.14323174 
           6    0.9389221  -0.12213257 
        6.01   0.87773235  -0.12440804 
        6.02   0.86750538  -0.11094503 
        6.03    0.9005988 -0.088232366 
        6.04   0.91120058 -0.079956857 
        6.05    0.9026732 -0.084484777 
        6.06   0.89193552 -0.095659297 
        6.07   0.87607747  -0.11151116 
        6.08   0.87133301  -0.12045589 
        6.09   0.91553577  -0.10432471 
         6.1   0.92891768 -0.093484077 
        6.11   0.88401686    -0.102567 
        6.12   0.86245073   -0.1059058 
        6.13   0.92068903 -0.086432832 
        6.14   0.94022058 -0.088089101 
        6.15   0.90423497  -0.10947783 
        6.16   0.87582489  -0.12247609 
        6.17   0.89182619   -0.1158823 
        6.18   0.93697189 -0.098330756 
        6.19   0.91738299  -0.10434085 
         6.2   0.85391374  -0.12378975 
        6.21   0.87720631  -0.10621514 
        6.22   0.91259059 -0.082344982 
        6.23   0.91628587 -0.073092966 
        6.24   0.88252192 -0.083348229 
        6.25   0.84641584  -0.10244903 
        6.26   0.90587622 -0.093380659 
        6.27   0.93824331 -0.096750193 
        6.28   0.89868671  -0.12072496 
        6.29   0.87609958  -0.13057867 
         6.3   0.89733109  -0.11605253 
        6.31   0.93787179 -0.081363375 
        6.32   0.92603482  -0.05505977 
        6.33   0.85061796 -0.055589767 
        6.34   0.87439912 -0.031020432 
        6.35   0.92054593 -0.012905862 
        6.36   0.91716198 -0.025431162 
        6.37   0.88259464  -0.05723636 
        6.38   0.87738613 -0.084526352 
        6.39   0.94923093 -0.086951862 
         6.4        0.962  -0.10556068 
        6.41   0.90529923  -0.13215443 
        6.42   0.88170515  -0.12888357 
        6.43   0.89259814  -0.10691575 
        6.44   0.93072215 -0.079042731 
        6.45   0.92138717 -0.074394955 
        6.46   0.85419524 -0.094853431 
        6.47   0.87475161 -0.083988556 
        6.48   0.91072656 -0.068722166 
        6.49   0.91462188 -0.067575827 
         6.5   0.88741482 -0.082518979 
        6.51   0.84458618  -0.10975789 
        6.52   0.86807863  -0.11850181 
        6.53   0.93585476  -0.11126482 
        6.54   0.91398929   -0.1280802 
        6.55   0.87530515  -0.13723764 
        6.56   0.88262651  -0.11629472 
        6.57    0.9237008 -0.073196326 
        6.58   0.92071922 -0.048130725 
        6.59   0.90414484 -0.042758217 
         6.6   0.89774631 -0.051277155 
        6.61   0.89571571 -0.066604836 
        6.62   0.89260333 -0.080314397 
        6.63   0.89238517 -0.088479707 
        6.64   0.90647966 -0.087538299 
        6.65   0.91785977 -0.083713434 
        6.66   0.89375447 -0.092385645 
        6.67   0.86318271  -0.10518907 
        6.68   0.89755727 -0.090451144 
        6.69   0.93992098  -0.06029402 
         6.7    0.9068442 -0.043467376 
        6.71   0.88218582 -0.018585425 
        6.72   0.89291097   0.01025255 
        6.73   0.91966939  0.029938369 
        6.74   0.91964716   0.03123153 
        6.75   0.86265803 0.0088199213 
        6.76   0.87432537  0.007567786 
        6.77    0.9271593  0.013757843 
        6.78   0.92441884 -0.0067422088 
        6.79    0.8829969  -0.04109396 
         6.8   0.88418948  -0.05327916 
        6.81   0.90001978 -0.052434139 
        6.82   0.90595828  -0.04948576 
        6.83   0.89883233 -0.049346143 
        6.84   0.86935627 -0.060934368 
        6.85   0.87002521 -0.069168838 
        6.86   0.92444694 -0.061018136 
        6.87   0.92653364 -0.067074406 
        6.88   0.87983061 -0.080034926 
        6.89    0.8735643 -0.068593893 
         6.9   0.89136976 -0.046234465 
        6.91   0.90337985 -0.032245439 
        6.92    0.9090922  -0.02897708 
        6.93    0.8909398 -0.036787334 
        6.94    0.8532757 -0.049227671 
        6.95   0.88825164 -0.034385654 
        6.96   0.93058781 -0.023009923 
        6.97    0.9111675 -0.043903835 
        6.98   0.88736473 -0.073751942 
        6.99   0.89312314 -0.096332757 
           7   0.91906985  -0.11011344 
        7.01   0.96480126  -0.10973847 
        7.02   0.91158012   -0.1386507 
        7.03   0.87636119  -0.15292174 
        7.04   0.89113579  -0.14156868 
        7.05   0.92526469  -0.11333881 
        7.06   0.91630117 -0.095458682 
        7.07   0.84769909  -0.10936674 
        7.08   0.86476129  -0.10564425 
        7.09   0.90597591  -0.09932459 
         7.1   0.91229457  -0.10241621 
        7.11   0.89279543   -0.1120237 
        7.12   0.86565888   -0.1262733 
        7.13   0.87454262  -0.12691607 
        7.14   0.93379591   -0.1005277 
        7.15   0.92038577 -0.093044278 
        7.16   0.87721764 -0.097631123 
        7.17   0.88330481 -0.093088493 
        7.18   0.91021867 -0.087818371 
        7.19   0.91020093 -0.088947352 
         7.2   0.89737062 -0.086417396 
        7.21   0.88881322 -0.080007384 
        7.22   0.90833401 -0.069990154 
        7.23   0.94759503 -0.061851883 
        7.24   0.90792236 -0.089537428 
        7.25   0.87849301  -0.11186431 
        7.26   0.89597443   -0.1068301 
        7.27   0.91885543 -0.084365442 
        7.28   0.91595671 -0.059063958 
        7.29   0.86678904 -0.050898521 
         7.3   0.86733594 -0.034262498 
        7.31   0.92240934 -0.0084393463 
        7.32   0.92243779 -0.0095141538 
        7.33   0.89251092  -0.02283595 
        7.34   0.88697671 -0.027027951 
        7.35    0.8985617  -0.02282208 
        7.36   0.90168606  -0.01647852 
        7.37   0.89897063 -0.0078016555 
        7.38   0.89835307 0.0018965484 
        7.39   0.91352443  0.015753657 
         7.4   0.92436942  0.027313981 
        7.41   0.88967798  0.021068474 
        7.42   0.86654972  0.017333589 
        7.43   0.90999697  0.038338942 
        7.44   0.94083499  0.058516593 
        7.45   0.90994863  0.060220722 
        7.46    0.8922636   0.06540595 
        7.47   0.89456851  0.073683612 
        7.48   0.91719583  0.090144843 
        7.49   0.94986022   0.11354921 
         7.5   0.90190938   0.10657305 
        7.51   0.86816382   0.10043122 
        7.52   0.89724225     0.109968 
        7.53   0.92639727   0.11096058 
        7.54   0.90651716  0.089005072 
        7.55   0.85594078  0.058727418 
        7.56   0.87646501   0.06341005 
        7.57    0.9533378  0.099430304 
        7.58   0.90373871  0.089504772 
        7.59   0.87028656  0.078734469 
         7.6   0.89340293   0.08586596 
        7.61   0.93046942   0.10373448 
        7.62   0.90864891   0.10840593 
        7.63    0.8542573   0.10423694 
        7.64    0.8752669   0.12325139 
        7.65   0.90058571   0.13707019 
        7.66   0.90505818   0.14215245 
        7.67   0.89931029   0.14311022 
        7.68   0.88802635   0.13971804 
        7.69   0.89066985   0.13931997 
         7.7   0.92315952   0.14795654 
        7.71   0.92879525   0.14328584 
        7.72   0.87505679   0.11050545 
        7.73   0.87485563  0.091744359 
        7.74   0.90863149  0.084261825 
        7.75   0.91390596  0.073959043 
        7.76   0.90121627  0.066880008 
        7.77   0.89481305  0.065634578 
        7.78    0.8994428  0.067354935 
        7.79   0.92135588   0.07552595 
         7.8   0.94388046  0.086415907 
        7.81   0.89220054   0.07157405 
        7.82    0.8711653  0.066045854 
        7.83   0.90511601  0.076735009 
        7.84   0.93330315  0.084688353 
        7.85   0.88058642  0.062501146 
        7.86   0.85121308  0.044625051 
        7.87    0.8984218  0.047663045 
        7.88   0.92660426  0.039475919 
        7.89   0.90217865   0.01321318 
         7.9   0.86984879 -0.015260253 
        7.91   0.89192288 -0.021951859 
        7.92   0.95788241 -0.0020236982 
        7.93   0.99476665   0.02999389 
        7.94   0.89131117  0.030274266 
        7.95   0.87202545  0.072751531 
        7.96   0.90148454    0.1343498 
        7.97   0.92222357   0.18771708 
        7.98   0.90307617   0.21657809 
        7.99   0.86746796   0.22591761 
           8   0.88191833   0.23689365 
        8.01   0.94467329   0.24736965 
        8.02   0.92338839   0.21370865 
        8.03   0.89359464    0.1753329 
        8.04   0.89487795   0.15155421 
        8.05   0.90468973   0.13673256 
        8.06   0.90850636   0.12709713 
        8.07   0.89029325   0.11180368 
        8.08   0.87990388  0.093715066 
        8.09   0.90805217   0.08663432 
         8.1   0.93663176  0.089036431 
        8.11   0.88937823  0.078296066 
        8.12   0.85420306  0.078519089 
        8.13   0.88855234  0.099330822 
        8.14   0.90875351   0.10730954 
        8.15    0.9049351   0.10570897 
        8.16   0.88653748  0.098441824 
        8.17   0.86409977  0.084575185 
        8.18   0.89331472  0.084701314 
        8.19   0.93705501  0.087753685 
         8.2   0.90988895  0.064326867 
        8.21   0.87626241  0.039958634 
        8.22    0.8891769  0.034325778 
        8.23   0.90498897  0.032218394 
        8.24   0.90531382  0.028828462 
        8.25    0.8935331  0.024433327 
        8.26   0.86067892  0.010692011 
        8.27   0.86643306 0.0058187203 
        8.28   0.92466375  0.017457952 
        8.29    0.9229494  0.010317334 
         8.3   0.88102979 -0.0059139517 
        8.31   0.87680795 -0.0051955821 
        8.32   0.90904744 0.0084341023 
        8.33    0.9159762 0.0089148527 
        8.34   0.90389185 -0.0045611563 
        8.35   0.88918996 -0.026503257 
        8.36    0.8891033 -0.044971596 
        8.37   0.91459275 -0.048061372 
        8.38   0.93640764 -0.043382259 
        8.39   0.88872987 -0.060209095 
         8.4   0.86413998  -0.07018131 
        8.41    0.9001168 -0.060234326 
        8.42   0.91776619 -0.054655627 
        8.43   0.90457358 -0.053491268 
        8.44   0.89194372 -0.045506678 
        8.45   0.89495216 -0.028957536 
        8.46   0.94258867 0.0048603372 
        8.47   0.95502033  0.026343481 
        8.48     0.890884  0.015513505 
        8.49   0.88565014  0.017572645 
         8.5   0.90890996  0.022524443 
        8.51   0.92565319  0.023705941 
        8.52    0.8844095 0.0024451263 
        8.53    0.8567739 -0.017853411 
        8.54   0.90336734 -0.014144659 
        8.55   0.92297706 -0.016566167 
        8.56   0.90191945 -0.020872758 
        8.57   0.88433067 -0.009202258 
        8.58    0.8947779  0.019708462 
        8.59   0.95680753  0.062403449 
         8.6   0.95024615  0.061993293 
        8.61   0.91634032  0.030838773 
        8.62   0.89637615 -0.0073393671 
        8.63    0.8841717 -0.042733792 
        8.64   0.89495814 -0.060452443 
        8.65   0.92509137 -0.054244217 
        8.66   0.92521848 -0.037807236 
        8.67    0.8632097 -0.027707048 
        8.68   0.86107326 0.0087096172 
        8.69   0.90396156  0.056806932 
         8.7   0.90447514  0.085493336 
        8.71   0.89475929   0.11005265 
        8.72   0.89878847   0.13036122 
        8.73   0.93382037   0.14473212 
        8.74   0.92746939   0.13121904 
        8.75   0.87458451  0.096711793 
        8.76   0.88458669   0.08335228 
        8.77    0.9174998  0.073602623 
        8.78   0.91762871  0.048101452 
        8.79     0.848875 -0.0044662154 
         8.8   0.87321158 -0.020380679 
        8.81   0.91562536 -0.022005003 
        8.82    0.9143321  -0.02843071 
        8.83   0.87914897 -0.041455269 
        8.84   0.84831235 -0.055629738 
        8.85   0.89594802 -0.044896718 
        8.86   0.93455362 -0.040653098 
        8.87   0.90367759 -0.066000454 
        8.88   0.87588764  -0.09742061 
        8.89   0.89672709  -0.11643559 
         8.9   0.95079889  -0.11380762 
        8.91   0.95904773  -0.10399307 
        8.92    0.8734556  -0.11182576 
        8.93   0.87441156 -0.086350517 
        8.94   0.91481321 -0.051641306 
        8.95   0.91862549 -0.032986763 
        8.96   0.88387722 -0.033717071 
        8.97   0.84644666 -0.049151973 
        8.98   0.88922303   -0.0499638 
        8.99   0.94089279  -0.05532742 
           9   0.90931346 -0.090178185 
        9.01   0.88014692  -0.11649126 
        9.02   0.89165021  -0.11909704 
        9.03   0.92434213   -0.1070483 
        9.04   0.95661292 -0.088388182 
        9.05    0.9079195 -0.094969696 
        9.06   0.86631244 -0.098106499 
        9.07   0.89250985 -0.076162298 
        9.08   0.92376566 -0.047336893 
        9.09   0.90548313 -0.030410708 
         9.1   0.86528253 -0.023927909 
        9.11   0.82963879 -0.027219303 
        9.12   0.89169098 -0.0049132633 
        9.13   0.92528345 -0.00077103142 
        9.14   0.90636643 -0.020935146 
        9.15   0.87451467 -0.049483118 
        9.16   0.88703786 -0.059318265 
        9.17   0.94989319 -0.035497451 
        9.18   0.92959916 -0.023918257 
        9.19   0.89106248 -0.014188551 
         9.2   0.89229931 -0.003039877 
        9.21   0.91336121 0.00053101937 
        9.22   0.91927254 -0.0034475819 
        9.23    0.8697512 -0.024133112 
        9.24   0.86328906 -0.029177128 
        9.25    0.9179525 -0.016682657 
        9.26   0.92402614 -0.026559122 
        9.27   0.90199666 -0.046818604 
        9.28   0.88929034 -0.061397608 
        9.29   0.89699798 -0.065003778 
         9.3   0.94624684 -0.045270189 
        9.31   0.94617197 -0.038409015 
        9.32   0.88618431 -0.057666101 
        9.33   0.88456923 -0.055467792 
        9.34   0.90893687 -0.033564027 
        9.35   0.92616228 -0.0002411006 
        9.36   0.90119213  0.025242469 
        9.37   0.85443064  0.033806137 
        9.38   0.88978007  0.051718257 
        9.39   0.93143992  0.052123193 
         9.4   0.91417919  0.021911277 
        9.41   0.89138235 -0.0080386995 
        9.42   0.89416825 -0.019713755 
        9.43   0.90123932 -0.016254433 
        9.44    0.8998008 -0.0010005429 
        9.45   0.89513754  0.025251568 
        9.46   0.93513996  0.074914907 
        9.47   0.95009191   0.11539318 
        9.48    0.8852699   0.11872321 
        9.49   0.87267668   0.12701666 
         9.5   0.91314381   0.14256991 
        9.51   0.92928973   0.14938075 
        9.52    0.8793833   0.13243696 
        9.53   0.84535502   0.11176644 
        9.54   0.87986207   0.10207696 
        9.55   0.91661478  0.083984269 
        9.56    0.9213272  0.054547502 
        9.57   0.88014185  0.016949687 
        9.58   0.87444658 0.0035223089 
        9.59   0.91642417  0.016343886 
         9.6   0.94423352  0.031267205 
        9.61   0.86422081 0.0095887406 
        9.62   0.86022682  0.014626794 
        9.63   0.91490494  0.038355432 
        9.64   0.92450153  0.047119296 
        9.65   0.88463964  0.042818536 
        9.66   0.86440782   0.04850464 
        9.67   0.93099565  0.081407391 
        9.68   0.93915541  0.079672609 
        9.69   0.90088542  0.047414425 
         9.7   0.88724192  0.014821785 
        9.71   0.89988023 -0.010326454 
        9.72   0.92584537 -0.026237435 
        9.73   0.92113872 -0.044366977 
        9.74   0.87108155 -0.065264205 
        9.75    0.8735339 -0.053903255 
        9.76   0.91702026 -0.020354118 
        9.77   0.91401893 -0.0032948492 
        9.78   0.89564791 0.0014262481 
        9.79   0.89312447 0.0012329757 
         9.8   0.90965569 0.0018133634 
        9.81   0.96240955  0.016724585 
        9.82   0.92617837 -0.00032048694 
        9.83   0.88058479 -0.021999857 
        9.84   0.88918232 -0.024874542 
        9.85   0.92219408 -0.017715332 
        9.86   0.92617289 -0.019759821 
        9.87   0.85970634 -0.048574873 
        9.88    0.8676087 -0.050555682 
        9.89    0.9108323 -0.039195839 
         9.9   0.91285809 -0.038600137 
        9.91   0.89155354 -0.038053219 
        9.92   0.87932655 -0.028294155 
        9.93   0.92701403 0.0034783209 
        9.94    0.9374659  0.018040991 
        9.95   0.88482301 0.0060894838 
        9.96   0.87443862 0.0076295705 
        9.97   0.90605926  0.021290015 
        9.98   0.91995434  0.024608411 
        9.99   0.90788166  0.018238137 
          10   0.89773645  0.017317072 
       10.01   0.89234356  0.022946503 
       10.02    0.9055453  0.038516854 
       10.03   0.93836378  0.064404995 
       10.04   0.91447613  0.069412221 
       10.05   0.86358316  0.054083711 
       10.06   0.88634943  0.051248833 
       10.07   0.91776135  0.043948621 
       10.08   0.91284918  0.024265354 
       10.09   0.90132712 -0.00055715473 
        10.1   0.89946752  -0.02954465 
       10.11   0.90111023 -0.060807117 
       10.12    0.8769981   -0.1030169 
       10.13    0.8499492  -0.14688902 
       10.14   0.90466756  -0.15598196 
       10.15    0.9299771  -0.16586492 
       10.16   0.90031813  -0.18689525 
       10.17   0.88235177  -0.20252665 
       10.18    0.8952774  -0.20899224 
       10.19   0.90259535   -0.2118726 
        10.2   0.89935479  -0.20768608 
       10.21    0.8958945   -0.1971071 
       10.22   0.91129123  -0.17761637 
       10.23   0.93551591    -0.152183 
       10.24   0.89894277   -0.1478123 
       10.25   0.86179921  -0.14647164 
       10.26    0.8948163  -0.12452788 
       10.27   0.92536615   -0.1098234 
       10.28   0.91185659  -0.11601648 
       10.29   0.89213087  -0.12626777 
        10.3   0.88666201    -0.130556 
       10.31   0.91474284  -0.11697546 
       10.32   0.94945594 -0.088785461 
       10.33   0.89460366  -0.08168573 
       10.34   0.86666698 -0.058750866 
       10.35    0.8917265 -0.015021029 
       10.36   0.90912921   0.02459163 
       10.37   0.90311871  0.051885844 
       10.38   0.89516073  0.069587258 
       10.39   0.90053477  0.081008641 
        10.4    0.9257116   0.10075899 
       10.41   0.90996547   0.11489624 
       10.42   0.86990416   0.12430493 
       10.43   0.88248967   0.14652527 
       10.44   0.93277223   0.16995267 
       10.45   0.92062257   0.15927043 
       10.46   0.89815053   0.13767567 
       10.47   0.89765707     0.116249 
       10.48   0.90335633  0.094403052 
       10.49   0.89296161  0.076350037 
        10.5   0.85333516  0.063233847 
       10.51   0.88033498  0.081940305 
       10.52   0.92326764  0.096654043 
       10.53   0.91513507  0.072966562 
       10.54   0.88476969  0.028096524 
       10.55   0.88195363 -0.0048549359 
       10.56   0.93913328 -0.0025482059 
       10.57   0.96438236 0.0047055922 
       10.58   0.90080244 -0.0081741391 
       10.59    0.8794467 0.0034193511 
        10.6   0.89738038  0.033272118 
       10.61   0.92838419  0.066263086 
       10.62   0.91017117   0.07155537 
       10.63   0.84374604  0.042896413 
       10.64   0.87719025  0.034744487 
       10.65   0.91798812  0.019964916 
       10.66   0.91454194 -0.0048631269 
       10.67   0.87865056 -0.024255398 
       10.68   0.87161432 -0.018412915 
       10.69   0.94815779  0.028502096 
        10.7   0.92276271  0.044438126 
       10.71   0.87369448   0.05492727 
       10.72   0.88023875  0.081579584 
       10.73   0.92190986   0.11119624 
       10.74   0.91892526   0.11306462 
       10.75   0.90314865   0.10006296 
       10.76   0.89633722  0.081903119 
       10.77   0.89730565  0.061177489 
       10.78   0.89859606  0.035631646 
       10.79    0.8928738 0.0040642264 
        10.8   0.89162603 -0.023374866 
       10.81    0.9018827 -0.039258952 
       10.82   0.91438719  -0.04619259 
       10.83   0.90224557    -0.059545 
       10.84   0.87010542 -0.083112785 
       10.85   0.88191434 -0.089859697 
       10.86   0.93885389  -0.06591735 
       10.87   0.91903093 -0.048665801 
       10.88   0.88145909 -0.024980995 
       10.89   0.88304739 0.0076780237 
        10.9   0.90329165  0.030872818 
       10.91   0.91472435  0.036654117 
       10.92   0.89142052   0.01975052 
       10.93   0.84007793 -0.015706008 
       10.94   0.88417594 -0.017648668 
       10.95   0.91503495 -0.017825734 
       10.96   0.90434454 -0.021004721 
       10.97   0.88030635 -0.019724999 
       10.98   0.88308203 -0.0058318898 
       10.99   0.93860385  0.024338427 
          11    0.9245365   0.01937089 
       11.01   0.88221792 -0.0063865688 
       11.02   0.88886402 -0.020088632 
       11.03   0.90778816 -0.026207298 
       11.04   0.90657181 -0.028044025 
       11.05   0.86195808 -0.036908176 
       11.06   0.83256853 -0.043951454 
       11.07   0.89705021 -0.026491291 
       11.08   0.92136181 -0.033704586 
       11.09   0.90352963 -0.059476869 
        11.1   0.87312892 -0.087359581 
       11.11   0.88738772 -0.091327342 
       11.12   0.95635682 -0.061416875 
       11.13   0.92504452 -0.052379564 
       11.14   0.88518044 -0.033271921 
       11.15   0.88308496 0.0030616073 
       11.16   0.91292821  0.044618421 
       11.17   0.92418245  0.066157774 
       11.18   0.86380636  0.046797237 
       11.19   0.84255642  0.032656158 
        11.2   0.89715454  0.042540821 
       11.21    0.9210403  0.038928135 
       11.22   0.90386383  0.014136332 
       11.23   0.87149788 -0.027183683 
       11.24    0.8830056 -0.059644358 
       11.25   0.96066652 -0.062516967 
       11.26   0.93117102 -0.092379428 
       11.27   0.88965598   -0.1172163 
       11.28   0.88914455  -0.12659653 
       11.29   0.91318505  -0.12686585 
        11.3   0.93476723  -0.12092993 
       11.31    0.8927432  -0.12933176 
       11.32   0.85730329  -0.13333152 
       11.33   0.89834353  -0.11620619 
       11.34   0.92435419  -0.11526867 
       11.35   0.90905078  -0.13517036 
       11.36    0.8914988  -0.15141373 
       11.37   0.89127679   -0.1512584 
       11.38   0.90737069  -0.13507925 
       11.39   0.97565094 -0.089873063 
        11.4    0.9325192 -0.082571336 
       11.41    0.8842278  -0.08128641 
       11.42   0.88710909 -0.071430141 
       11.43   0.92128496 -0.059767956 
       11.44   0.93043083 -0.063663834 
       11.45     0.865134  -0.10136371 
       11.46   0.87254033  -0.11415733 
       11.47   0.91380333  -0.11150625 
       11.48   0.91746133   -0.1148136 
       11.49   0.88900782  -0.12303855 
        11.5   0.86214487  -0.12736943 
       11.51   0.86291423  -0.12161178 
       11.52   0.92145011 -0.097186785 
       11.53   0.92718663 -0.089694467 
       11.54   0.88023881 -0.091373954 
       11.55   0.86841321 -0.072500589 
       11.56   0.91700391 -0.029832066 
       11.57   0.92131237 -0.0032829862 
       11.58   0.89621154  0.013646978 
       11.59   0.88291622  0.035212548 
        11.6   0.91200995  0.072275429 
       11.61   0.94806386   0.11268517 
       11.62   0.89803742   0.11739468 
       11.63   0.87196457   0.11992463 
       11.64   0.89431061   0.12618553 
       11.65   0.92074402   0.12394504 
       11.66   0.90922363   0.10349587 
       11.67   0.85911422  0.069424325 
       11.68   0.87448181  0.065694305 
       11.69   0.91224767  0.079713796 
        11.7   0.90472891  0.087188105 
       11.71   0.88935832  0.096620238 
       11.72   0.89474587   0.10863717 
       11.73   0.93719705   0.12352981 
       11.74    0.9322601   0.11521984 
       11.75   0.87071657  0.091287524 
       11.76   0.88029542   0.10045045 
       11.77   0.91238943   0.11731625 
       11.78   0.91724198   0.11818148 
       11.79   0.87810942   0.09673881 
        11.8   0.83147383  0.067373053 
       11.81   0.88184362  0.072811181 
       11.82   0.90464608  0.070271455 
       11.83   0.90946728  0.062254768 
       11.84   0.89484722  0.044672522 
       11.85   0.87629133  0.022760883 
       11.86   0.89402311  0.010358033 
       11.87   0.94633947 0.0070770766 
       11.88   0.91912211 -0.027949217 
       11.89   0.88207935 -0.066911479 
        11.9    0.8964192   -0.0869395 
       11.91   0.91519329  -0.10043458 
       11.92   0.90256055  -0.11529277 
       11.93   0.85339656  -0.13904948 
       11.94    0.8801937  -0.14165134 
       11.95   0.92919912  -0.14032542 
       11.96   0.91207402  -0.15090052 
       11.97   0.88320973  -0.14817293 
       11.98   0.88599542  -0.12512303 
       11.99   0.94626374 -0.081911075 
          12   0.94449528 -0.066553788 
       12.01   0.90808628 -0.065553668 
       12.02   0.88622252 -0.059757795 
       12.03   0.89033486 -0.045813228 
       12.04   0.92811657 -0.019059168 
       12.05   0.93477648 -0.00034908434 
       12.06   0.86252343 -0.010897605 
       12.07   0.86690859 0.0020438853 
       12.08   0.90530861  0.023212109 
       12.09   0.91236102  0.034739858 
        12.1   0.89481435  0.037943341 
       12.11   0.86721235  0.028410283 
       12.12   0.86189975  0.011190238 
       12.13   0.92537816 0.0062959623 
       12.14   0.93555862 -0.021084083 
       12.15   0.89110838 -0.059152807 
       12.16   0.88503062 -0.068887584 
       12.17   0.90067886 -0.060877309 
       12.18   0.91553536  -0.05165051 
       12.19   0.90781311  -0.05300512 
        12.2   0.86694531 -0.066727084 
       12.21   0.87768369 -0.057353167 
       12.22   0.92389953 -0.029818216 
       12.23   0.91655598 -0.018142476 
       12.24   0.87910875 -0.014885328 
       12.25   0.87147809 0.00074125493 
       12.26   0.94082866  0.047332458 
       12.27   0.92150793  0.060472585 
       12.28   0.87355449  0.057575231 
       12.29   0.88107472  0.066280243 
        12.3   0.92811031  0.081682802 
       12.31   0.92492109  0.073676877 
       12.32   0.90393411  0.055677073 
       12.33   0.89942643  0.037805053 
       12.34    0.8980916   0.01430617 
       12.35     0.895108 -0.012596388 
       12.36   0.88663495 -0.038470369 
       12.37   0.89010668 -0.053655066 
       12.38   0.91907261 -0.053116291 
       12.39   0.92757268 -0.056312178 
        12.4   0.87490007 -0.081630357 
       12.41   0.86453874 -0.090886361 
       12.42   0.90466367 -0.077244243 
       12.43    0.9101337 -0.070881473 
       12.44   0.89783099 -0.070407577 
       12.45   0.89115465   -0.0732571 
       12.46   0.90745404 -0.072817337 
       12.47   0.93742036 -0.065785857 
       12.48   0.90165041 -0.073057434 
       12.49   0.86101322 -0.071231749 
        12.5   0.88809623 -0.042342824 
       12.51   0.91238503 -0.021748495 
       12.52    0.9043596 -0.019610589 
       12.53   0.89047505 -0.019013466 
       12.54   0.89014679 -0.0071928154 
       12.55   0.93376383  0.025624244 
       12.56   0.93265158  0.032759805 
       12.57   0.88087111 0.0056749607 
       12.58   0.88172618 -0.0035544487 
       12.59   0.90306053 0.0033229918 
        12.6   0.90910034  0.011266285 
       12.61   0.89718716 0.0083087543 
       12.62   0.84405647 -0.025834008 
       12.63   0.86277574  -0.04683514 
       12.64   0.92387673 -0.056821115 
       12.65   0.92001806 -0.084584456 
       12.66   0.88351069  -0.11217999 
       12.67   0.88006222  -0.11690919 
       12.68   0.91104234  -0.10116204 
       12.69   0.96120184 -0.069184712 
        12.7   0.98702022 -0.033841003 
       12.71   0.90086704 -0.034244415 
       12.72   0.87652379 -0.014856823 
       12.73     0.900195 0.0096406561 
       12.74   0.93216876  0.019121069 
       12.75     0.907093 -0.0099501453 
       12.76   0.86937826 -0.051194366 
       12.77   0.88981856 -0.066608241 
       12.78   0.90921999 -0.071400784 
       12.79   0.90539704 -0.072817452 
        12.8   0.86845821 -0.079816989 
       12.81   0.84133383 -0.086468517 
       12.82   0.90660663  -0.06661442 
       12.83   0.92259045  -0.06954386 
       12.84   0.89415225 -0.083817108 
       12.85   0.87168525 -0.090520502 
       12.86   0.91335706  -0.07424295 
       12.87   0.95397772  -0.06040557 
       12.88   0.90968928   -0.0744542 
       12.89   0.88594163 -0.072073686 
        12.9   0.89204913 -0.053220888 
       12.91   0.92501015 -0.027625333 
       12.92   0.95064973 -0.013642679 
       12.93   0.88717462 -0.041363866 
       12.94   0.87190717 -0.055035382 
       12.95   0.91069151 -0.051582705 
       12.96   0.93215712 -0.051458342 
       12.97   0.87847513 -0.070601463 
       12.98    0.8576999 -0.068274424 
       12.99   0.88641107 -0.038021912 
          13   0.90567722 -9.3748847e-06 
       13.01   0.90607293  0.038935391 
       13.02    0.8986327   0.07406714 
       13.03   0.90739403   0.10233122 
       13.04   0.92235692   0.11310301 
       13.05   0.90071789  0.093924402 
       13.06   0.87086853  0.061274689 
       13.07   0.89395028  0.041723364 
       13.08   0.96207999  0.038083202 
       13.09   0.92678322 0.0014704411 
        13.1   0.89059853 -0.024070242 
       13.11    0.8937502 -0.022825165 
       13.12    0.9082379 -0.0059320958 
       13.13   0.91553734  0.015324675 
       13.14   0.89578204  0.025998606 
       13.15   0.86400904  0.024606399 
       13.16   0.89249108  0.034861306 
       13.17   0.93896455  0.042727549 
       13.18    0.9136825  0.019013761 
       13.19   0.89004961 -0.0061146342 
        13.2   0.89701477 -0.023030129 
       13.21   0.90816688 -0.041063936 
       13.22   0.89801544 -0.064923254 
       13.23    0.8443182 -0.099084545 
       13.24   0.87373795 -0.093871384 
       13.25   0.91526007 -0.076352698 
       13.26   0.90761485 -0.070422771 
       13.27   0.88418685 -0.066791228 
       13.28    0.8783078 -0.054987615 
       13.29   0.92985319 -0.019161119 
        13.3   0.93081908 -0.00068576802 
       13.31   0.87978518 -0.0040388334 
       13.32   0.87547001 0.0045701064 
       13.33   0.89915941  0.019739705 
       13.34   0.90430595  0.027284493 
       13.35   0.89894273  0.032409835 
       13.36   0.89387678  0.039954316 
       13.37   0.91147755  0.056403399 
       13.38    0.9349077   0.06702564 
       13.39   0.90014613   0.04194639 
        13.4   0.87258468 0.0096258771 
       13.41   0.89747268 -0.0039120948 
       13.42   0.93157074 -0.0068924514 
       13.43   0.91715036 -0.018822247 
       13.44   0.86202151 -0.042073026 
       13.45   0.88271055 -0.038926205 
       13.46   0.92771053 -0.025701164 
       13.47   0.91402546 -0.025484137 
       13.48    0.8694545 -0.027600321 
       13.49   0.87882976 -0.0053599829 
        13.5   0.94907077   0.04120303 
       13.51   0.90909607  0.043713151 
       13.52   0.87260363  0.041471293 
       13.53   0.89023915  0.054589493 
       13.54   0.93248694  0.076777038 
       13.55   0.91557918  0.075908761 
       13.56   0.85287535  0.047298173 
       13.57   0.86681063  0.033231187 
       13.58   0.90600189  0.021596659 
       13.59   0.92639802 0.0054191099 
        13.6   0.89273745 -0.023331693 
       13.61   0.86626724  -0.04270872 
       13.62   0.90217417 -0.032537204 
       13.63   0.94188693 -0.012690486 
       13.64   0.91704593 -0.0075771193 
       13.65   0.88880485 0.0011067237 
       13.66   0.88416116   0.01332605 
       13.67   0.92270194   0.03088707 
       13.68   0.94184706  0.033899847 
       13.69   0.87430451 0.00024402602 
        13.7   0.87624452 -0.010633736 
       13.71   0.91344837 -0.011676349 
       13.72   0.92310248 -0.022107874 
       13.73   0.86970651 -0.049754445 
       13.74    0.8543238 -0.052527332 
       13.75   0.88377728 -0.028639226 
       13.76   0.90279233 -0.0047785995 
       13.77   0.91349369  0.010850054 
       13.78   0.90130386 0.0093657312 
       13.79   0.85932941 -0.0089354812 
        13.8   0.87105399 -0.0041467503 
       13.81   0.92580594  0.030529389 
       13.82   0.90889861  0.052626337 
       13.83   0.88167703  0.069305976 
       13.84   0.89595393  0.084604776 
       13.85   0.96129186   0.10183352 
       13.86   0.92845119  0.073437679 
       13.87   0.89908019  0.045821129 
       13.88   0.89314268  0.028632566 
       13.89   0.89840611  0.019171392 
        13.9    0.9145779  0.018624207 
       13.91    0.9187113  0.020014299 
       13.92   0.88062521  0.010234651 
       13.93   0.86489301  0.010170284 
       13.94   0.91960614  0.033968246 
       13.95    0.9308233  0.035934943 
       13.96   0.90293304  0.016784018 
       13.97   0.89108141 -0.00082821595 
       13.98   0.89855856 -0.012894542 
       13.99   0.91844841 -0.018151862 
          14   0.94222189 -0.016006023 
       14.01   0.89536843  -0.03441344 
       14.02   0.86732146 -0.044515517 
       14.03   0.90152059 -0.036399491 
       14.04   0.93282991 -0.036188481 
       14.05   0.91015179 -0.060141681 
       14.06   0.89696336 -0.077240064 
       14.07   0.89706584 -0.077318771 
       14.08   0.89964684 -0.062923756 
       14.09   0.91234913 -0.037492224 
        14.1   0.92841945 -0.0095922781 
       14.11   0.90008656 2.1542142e-05 
       14.12   0.85892553 -0.0024329737 
       14.13   0.89235282  0.016429582 
       14.14   0.93011819  0.035200249 
       14.15   0.90851572  0.031623737 
       14.16     0.887728  0.021155364 
       14.17   0.89372258  0.010830452 
       14.18   0.94293937  0.017789485 
       14.19   0.94814048  0.021601431 
        14.2   0.88037488 0.0080406339 
       14.21    0.8798993  0.015105338 
       14.22   0.91585981  0.016531143 
       14.23   0.92817108 -0.010456525 
       14.24   0.86903654 -0.067733617 
       14.25   0.87153184 -0.090211934 
       14.26   0.90480596 -0.085911711 
       14.27   0.91715627 -0.075548793 
       14.28    0.8911149 -0.074257637 
       14.29   0.84220786 -0.088982212 
        14.3   0.88411884  -0.07810782 
       14.31   0.92554045 -0.064331887 
       14.32   0.90180538 -0.061804672 
       14.33   0.87237968 -0.050217257 
       14.34   0.89699918 -0.017695864 
       14.35    0.9435776  0.013149143 
       14.36   0.91632959 0.0028310789 
       14.37   0.89339463 -0.012746213 
       14.38   0.89246569 -0.018672439 
       14.39   0.90656969 -0.011286665 
        14.4   0.94881197  0.016154293 
       14.41   0.93223793  0.023638078 
       14.42   0.87402089 0.0077876856 
       14.43   0.88450052  0.008906396 
       14.44   0.91798303  0.012750061 
       14.45   0.91764587 0.0029884667 
       14.46   0.84751885 -0.033273406 
       14.47   0.85901694 -0.044308706 
       14.48   0.90544944  -0.05024314 
       14.49    0.9194566 -0.067837346 
        14.5   0.89239276 -0.094369609 
       14.51   0.86141764  -0.11870054 
       14.52   0.90278282  -0.11512327 
       14.53    0.9489399  -0.10469038 
       14.54   0.90221689  -0.12155451 
       14.55   0.87770318   -0.1300605 
       14.56   0.89871237  -0.12694332 
       14.57   0.93233308  -0.11832765 
       14.58   0.92207157  -0.11457782 
       14.59   0.85878955  -0.11890948 
        14.6   0.87366919  -0.08992816 
       14.61   0.91564905 -0.053088191 
       14.62   0.91041597 -0.033753469 
       14.63   0.88311795 -0.020360349 
       14.64   0.87168222 -0.0043503287 
       14.65   0.92531221  0.025986538 
       14.66   0.93327532  0.027172624 
       14.67   0.88712241 7.8297896e-05 
       14.68   0.88050393 -0.016538057 
       14.69   0.90494674 -0.023353129 
        14.7   0.91442222  -0.03252427 
       14.71   0.89663176 -0.045510263 
       14.72   0.82842189 -0.078272131 
       14.73   0.83535038 -0.089011398 
       14.74   0.90150125 -0.080099824 
       14.75   0.92337951 -0.079464501 
       14.76   0.89630923 -0.082464637 
       14.77   0.86438784 -0.075901395 
       14.78   0.90055955 -0.039063029 
       14.79   0.93342377 -0.0034190849 
        14.8    0.9034308 0.0058510762 
       14.81   0.88131149  0.013319753 
       14.82   0.89876335  0.028806813 
       14.83    0.9656109  0.053477527 
       14.84   0.93542565  0.030635911 
       14.85   0.90331689 0.0022505503 
       14.86   0.89409467 -0.015027393 
       14.87   0.89148415 -0.023919868 
       14.88   0.90452207 -0.022974657 
       14.89   0.92343418 -0.017578168 
        14.9   0.90386972 -0.025864808 
       14.91   0.86351007 -0.044702701 
       14.92   0.88798631 -0.042579311 
       14.93   0.93827981  -0.02705236 
       14.94   0.91837328 -0.025191887 
       14.95    0.8925353 -0.013532995 
       14.96   0.88697561  0.007734709 
       14.97   0.91753423  0.036319064 
       14.98   0.95232444  0.059461835 
       14.99   0.88611552   0.04041995 
          15    0.8647121  0.035226744 
       15.01   0.90501516  0.047693878 
       15.02   0.92650808  0.045789966 
       15.03   0.89820645  0.017713009 
       15.04   0.86402897 -0.016171522 
       15.05    0.9013008 -0.020167573 
       15.06   0.96514099 -0.004992487 
       15.07   0.91026298 -0.028367559 
       15.08    0.8770324 -0.046132193 
       15.09   0.89189544 -0.049982117 
        15.1   0.93201727  -0.04588333 
       15.11   0.91984003 -0.063697867 
       15.12   0.86018774   -0.1020826 
       15.13   0.88553554  -0.11100586 
       15.14   0.92117607  -0.11745973 
       15.15    0.9125667   -0.1341365 
       15.16   0.86256972  -0.15404619 
       15.17   0.85447886  -0.14938894 
       15.18   0.93499001  -0.10480465 
       15.19   0.91462567 -0.090799787 
        15.2   0.86973899 -0.080336682 
       15.21   0.88000234 -0.051363127 
       15.22   0.92484874 -0.015463148 
       15.23   0.91636502 -0.0087287001 
       15.24    0.8954649 -0.016844656 
       15.25   0.89421972 -0.024168119 
       15.26   0.90186741 -0.030169092 
       15.27   0.90339865 -0.035636373 
       15.28   0.90050063 -0.039292355 
       15.29   0.90023453 -0.045642829 
        15.3     0.902934 -0.061291212 
       15.31   0.88200045  -0.09051949 
       15.32   0.85348487  -0.11761128 
       15.33   0.89951303   -0.1061731 
       15.34   0.92620156 -0.088916224 
       15.35   0.90009215 -0.085215199 
       15.36   0.87551768 -0.090458954 
       15.37   0.90477924 -0.091718326 
       15.38   0.95942333 -0.086148196 
       15.39   0.90791252  -0.10814591 
        15.4   0.87723974  -0.10783646 
       15.41     0.892583 -0.084488477 
       15.42   0.92620901 -0.056992374 
       15.43   0.91596037 -0.053354627 
       15.44   0.84545243 -0.078205871 
       15.45   0.87424664 -0.068102145 
       15.46   0.91430276 -0.055687512 
       15.47   0.91355409 -0.057394192 
       15.48   0.88222486 -0.068499688 
       15.49   0.85513897 -0.081938036 
        15.5   0.89816361 -0.077226775 
       15.51   0.94246537 -0.072873399 
       15.52   0.90280435 -0.087901741 
       15.53   0.87137047 -0.080489827 
       15.54   0.88605093 -0.037938296 
       15.55   0.90265361  0.015137947 
       15.56   0.89623253  0.055952509 
       15.57   0.89629415  0.085932303 
       15.58   0.91044935   0.11194879 
       15.59   0.94175442   0.14702855 
        15.6   0.92626665   0.16962935 
       15.61   0.86623668   0.16691392 
       15.62   0.88149531    0.1702338 
       15.63   0.92492954   0.16159272 
       15.64   0.92276189   0.12753853 
       15.65   0.90670609  0.095942501 
       15.66   0.89625341  0.079261136 
       15.67   0.89181919  0.073715165 
       15.68   0.90932637  0.078740785 
       15.69   0.94477228  0.089392893 
        15.7    0.9068204  0.068887337 
       15.71   0.87258221  0.043538967 
       15.72   0.89567715   0.03398072 
       15.73   0.92188194   0.02608508 
       15.74   0.89613953 0.0026546853 
       15.75    0.8407123 -0.031154636 
       15.76   0.88511664 -0.029707551 
       15.77   0.91735072 -0.031107884 
       15.78   0.90643278 -0.038278031 
       15.79   0.87202643 -0.044555894 
        15.8   0.86419997 -0.041594023 
       15.81   0.92885203  -0.01739231 
       15.82   0.92619033 -0.019830683 
       15.83   0.88026499  -0.03446061 
       15.84   0.87647417 -0.033741817 
       15.85   0.91786111 -0.024317305 
       15.86   0.93276341 -0.036003652 
       15.87   0.85214713 -0.090647313 
       15.88   0.86554397  -0.11035741 
       15.89   0.92208792   -0.1102741 
        15.9   0.92694158  -0.11797764 
       15.91   0.87928429  -0.13042965 
       15.92   0.86990142  -0.11589408 
       15.93    0.9117539   -0.0732296 
       15.94    0.9150641 -0.041399792 
       15.95   0.89606454 -0.021975432 
       15.96   0.88995704 -0.0084761449 
       15.97   0.91655255 0.0057916425 
       15.98   0.95386759  0.016587871 
       15.99   0.89753041 -0.0099700683 
          16   0.87504804 -0.022404344 
       16.01   0.90153705 -0.015780794 
       16.02   0.92553785 -0.0078720283 
       16.03   0.89211878 -0.015838235 
       16.04   0.84330902 -0.024876803 
       16.05   0.88262754 -0.001512433 
       16.06   0.90881638  0.013498831 
       16.07   0.90775869  0.017708535 
       16.08   0.88700667  0.011477438 
       16.09   0.86162156 -0.0057158475 
        16.1   0.89061399 -0.013124782 
       16.11   0.94429629 -0.013774876 
       16.12    0.9137768 -0.038514668 
       16.13   0.88386658 -0.053513636 
       16.14   0.89263176 -0.048982629 
       16.15   0.90960484 -0.036913128 
       16.16   0.91347399 -0.022479753 
       16.17   0.88304469 -0.013037942 
       16.18   0.86524104 0.0044892741 
       16.19   0.90815178  0.046185491 
        16.2   0.92367484  0.077193957 
       16.21   0.89628481   0.08340858 
       16.22   0.86680293  0.076647008 
       16.23   0.87311176  0.075255312 
       16.24   0.93280307  0.094014804 
       16.25   0.92430756  0.095774989 
       16.26     0.874954  0.089739843 
       16.27   0.87802698   0.10257604 
       16.28   0.91604358   0.12413507 
       16.29   0.91802654   0.13033104 
        16.3   0.90239731   0.13295633 
       16.31   0.88895274   0.14185702 
       16.32   0.89596553   0.16161766 
       16.33   0.94098288   0.19465422 
       16.34    0.9318488   0.20019333 
       16.35   0.87289324   0.17087937 
       16.36   0.88891697   0.15141787 
       16.37    0.9196751   0.12709562 
       16.38   0.90991558  0.091281793 
       16.39    0.8542541  0.048602467 
        16.4   0.87353467  0.042345504 
       16.41   0.90236931  0.044483874 
       16.42   0.90949326  0.040937707 
       16.43    0.8968416  0.030507993 
       16.44   0.86143391   0.01075356 
       16.45   0.86056523 0.0029283224 
       16.46   0.92541796  0.020147856 
       16.47   0.92231254  0.013120957 
       16.48    0.8868998 -0.0059713405 
       16.49   0.88250751 -0.016250505 
        16.5   0.92233299 -0.010302245 
       16.51   0.98439932  0.016308192 
       16.52    0.9166959  0.012799594 
       16.53   0.88674189  0.032325536 
       16.54    0.8897854  0.059562477 
       16.55   0.91961876  0.089059341 
       16.56   0.92441326   0.10011576 
       16.57   0.87015581   0.07638047 
       16.58   0.86532629  0.061658393 
       16.59   0.90407279  0.062570001 
        16.6   0.91074047  0.057954313 
       16.61   0.89794805  0.052170569 
       16.62   0.88633715  0.047497725 
       16.63    0.8993559  0.050716985 
       16.64   0.93514908   0.06546621 
       16.65   0.91035037   0.06426521 
       16.66   0.86385079  0.058472585 
       16.67   0.88370643  0.074142455 
       16.68   0.92069799  0.085005279 
       16.69    0.9140362  0.066963088 
        16.7   0.89557109   0.03657292 
       16.71   0.88581901 0.0046290157 
       16.72   0.89496425 -0.017920309 
       16.73    0.9269016 -0.019403743 
       16.74   0.91977323 -0.022181761 
       16.75   0.87152491 -0.038022598 
       16.76   0.87668834 -0.038323145 
       16.77   0.92958999 -0.022811757 
       16.78   0.92768773 -0.023931568 
       16.79   0.90328873 -0.023115751 
        16.8   0.88555393 -0.010812905 
       16.81   0.89679695  0.010352436 
       16.82   0.94170073  0.033137512 
       16.83   0.92487749  0.023200942 
       16.84   0.86652463 -0.0057789356 
       16.85   0.88789101 -0.0036671064 
       16.86   0.92025021 0.0050826248 
       16.87   0.91345277 -0.00028685343 
       16.88   0.85650422 -0.030778215 
       16.89    0.8602625 -0.046280208 
        16.9   0.90778576  -0.04851766 
       16.91   0.91078436  -0.06616213 
       16.92   0.89431929 -0.090459512 
       16.93   0.88070517  -0.11447084 
       16.94   0.89657235  -0.12212741 
       16.95   0.94199029  -0.10414651 
       16.96   0.91597652 -0.095591086 
       16.97   0.86059749 -0.088597249 
       16.98   0.87607602 -0.056546793 
       16.99   0.90153917 -0.029774276 
          17   0.90914966 -0.018405828 
       17.01   0.89874809 -0.017578826 
       17.02    0.8623267 -0.027420038 
       17.03   0.85622408 -0.027517612 
       17.04   0.91800402 -0.0015863577 
       17.05   0.91922832 0.0048418764 
       17.06     0.887035 -0.0023175785 
       17.07   0.87544448 -0.0093790381 
       17.08   0.93604861 0.0039634242 
       17.09   0.95058606 0.0030919133 
        17.1   0.89623609 -0.013679571 
       17.11   0.88444425 -0.0078379201 
       17.12   0.90214613  0.011723463 
       17.13   0.92968768  0.039182273 
       17.14   0.92450114  0.060328899 
       17.15   0.86275785  0.059467152 
       17.16   0.87236142  0.069405448 
       17.17     0.926435  0.071112447 
       17.18   0.92496301  0.041212223 
       17.19   0.90180738 0.0041423169 
        17.2   0.89750827 -0.019409726 
       17.21   0.89932868 -0.028449045 
       17.22   0.89838733 -0.024988663 
       17.23   0.89494148 -0.011881757 
       17.24   0.89947579  0.012147347 
       17.25   0.91034008  0.042009361 
       17.26   0.91061297  0.064321152 
       17.27   0.88775489   0.07155067 
       17.28    0.8675433  0.075493876 
       17.29   0.90771571     0.100879 
        17.3   0.93584543   0.12151184 
       17.31   0.90038236   0.11495401 
       17.32    0.8805353   0.10834077 
       17.33   0.89364569   0.10591529 
       17.34   0.90779918  0.091762729 
       17.35   0.90831931  0.062446022 
       17.36   0.87317987  0.017285212 
       17.37   0.84458574 -0.025547025 
       17.38   0.91209188 -0.031473001 
       17.39   0.92940084 -0.050131889 
        17.4   0.89732781 -0.073960132 
       17.41   0.87511728 -0.081159396 
       17.42   0.89940586 -0.060963887 
       17.43   0.94301283 -0.023117473 
       17.44   0.90939169 -0.0042272375 
       17.45   0.87953023  0.016170127 
       17.46   0.89100454  0.038506288 
       17.47   0.91691309  0.052986121 
       17.48   0.91752247  0.049391788 
       17.49   0.86795938  0.023156933 
        17.5   0.86598448  0.015816187 
       17.51   0.91468176  0.029001306 
       17.52   0.91635875  0.028385609 
       17.53   0.89486495  0.026414252 
       17.54   0.88106572  0.032331371 
       17.55   0.91182995  0.055386919 
       17.56   0.95067579  0.076684331 
       17.57   0.90243179  0.057095896 
       17.58   0.88456226  0.040256484 
       17.59   0.90141736  0.031945437 
        17.6   0.91500466  0.026086493 
       17.61   0.89334194  0.014573168 
       17.62   0.85092292 0.00024666299 
       17.63   0.88874368   0.01778181 
       17.64   0.92326044  0.032242141 
       17.65   0.90528618  0.023268568 
       17.66   0.88220551 0.0082340994 
       17.67   0.88985143 6.0942509e-05 
       17.68    0.9520658  0.011695509 
       17.69   0.92925919 -0.0024012117 
        17.7   0.88254913 -0.017450455 
       17.71    0.8877901 -0.011231867 
       17.72   0.91434107 0.0015346989 
       17.73   0.92480366 0.0063996789 
       17.74   0.87207963 -0.021945366 
       17.75   0.86274915 -0.039382205 
       17.76   0.91186691 -0.026850938 
       17.77   0.91962834 -0.013726824 
       17.78   0.89444809 -0.0051116358 
       17.79   0.88662586 0.0054200044 
        17.8   0.89939265  0.020116162 
       17.81   0.90105842  0.033893962 
       17.82   0.89651357  0.049395999 
       17.83   0.89883447  0.068086454 
       17.84   0.91261787  0.089422185 
       17.85   0.92197731   0.10486049 
       17.86    0.8913567  0.095997027 
       17.87   0.86187801  0.078788019 
       17.88   0.90347655   0.08373432 
       17.89   0.94143852  0.084602525 
        17.9    0.9161741  0.061226346 
       17.91   0.89700656   0.04183337 
       17.92   0.89250815  0.029345916 
       17.93   0.90324054  0.023868455 
       17.94   0.93206815  0.029864448 
       17.95   0.91782725  0.027398959 
       17.96   0.86826915  0.013832475 
       17.97   0.88122143  0.016630217 
       17.98   0.92784692   0.02560647 
       17.99    0.9211832  0.017458624 
          18   0.90165744  0.012077077 
       18.01   0.89115494  0.014613373 
       18.02   0.89784841  0.026349207 
       18.03   0.93515436  0.053265844 
       18.04    0.9380542  0.069581366 
       18.05   0.87093927  0.055450818 
       18.06   0.87523674  0.060061292 
       18.07   0.91045109  0.068062867 
       18.08   0.91847352  0.057486446 
       18.09   0.89782048    0.0285608 
        18.1   0.87714439 -0.0010528638 
       18.11   0.84250445 -0.029252104 
       18.12   0.86708333 -0.026890097 
       18.13   0.92173957 -0.0055284746 
       18.14    0.9167588  0.002900591 
       18.15   0.87504823 0.0065303559 
       18.16   0.87031038  0.028081898 
       18.17   0.93138028  0.072720669 
       18.18   0.91947836  0.082839588 
       18.19   0.88926934  0.071973517 
        18.2   0.88885783  0.050990988 
       18.21   0.92836183  0.028510256 
       18.22   0.96265999 0.0095760058 
       18.23   0.89414347 -0.022842896 
       18.24   0.87326615 -0.011991075 
       18.25   0.89863276  0.026466147 
       18.26   0.92212801  0.058862452 
       18.27   0.90694814  0.059083826 
       18.28   0.86072744  0.026629293 
       18.29    0.8307191 -0.013175366 
        18.3   0.91430202 -0.011320067 
       18.31   0.92207004 -0.030174769 
       18.32   0.88761886  -0.05499008 
       18.33   0.87449255 -0.069543923 
       18.34   0.91419525 -0.065783151 
       18.35   0.94344074 -0.062077366 
       18.36    0.8798147  -0.08577518 
       18.37    0.8631327 -0.089641839 
       18.38   0.89918692 -0.080053103 
       18.39   0.92424483 -0.080634404 
        18.4   0.90125079  -0.09875659 
       18.41   0.85666172  -0.12042656 
       18.42   0.88916654  -0.10819184 
       18.43   0.94057107 -0.081348368 
       18.44   0.90212149 -0.079529724 
       18.45   0.87022778 -0.069648718 
       18.46   0.89353232 -0.035704451 
       18.47    0.9274166 0.0061964371 
       18.48   0.90719206  0.028769037 
       18.49    0.8888559  0.050403744 
        18.5   0.88996367  0.080298581 
       18.51   0.90140228   0.11434412 
       18.52   0.91036052    0.1328971 
       18.53   0.90267354   0.11678793 
       18.54   0.85968433  0.066245507 
       18.55   0.88654414   0.03975424 
       18.56   0.93247792  0.032626827 
       18.57   0.91267948  0.017493366 
       18.58   0.86708803 0.0011847995 
       18.59   0.88160038 0.0051015314 
        18.6   0.90507659 0.0057652502 
       18.61   0.90713292 -0.0066264717 
       18.62    0.8965015 -0.022864898 
       18.63    0.8770756 -0.033894006 
       18.64   0.87463839 -0.026714693 
       18.65   0.92220458 0.0093568775 
       18.66   0.92408667  0.030557733 
       18.67   0.88012718  0.030194908 
       18.68   0.86416271  0.036856939 
       18.69   0.93815423  0.081324418 
        18.7   0.92384591   0.10008822 
       18.71   0.87843575   0.10294422 
       18.72   0.88277107  0.099762154 
       18.73    0.9414578  0.085364715 
       18.74   0.93909382  0.029914525 
       18.75    0.8860189 -0.043888528 
       18.76   0.89835495 -0.080048502 
       18.77   0.90901153 -0.095072135 
       18.78   0.89859515  -0.10118344 
       18.79   0.87786506  -0.10798286 
        18.8   0.88885123  -0.10190389 
       18.81   0.93569752 -0.076903685 
       18.82     0.918231 -0.068006779 
       18.83   0.86397854 -0.069949242 
       18.84   0.87332259 -0.054496769 
       18.85   0.89774876 -0.047501401 
       18.86   0.91573274 -0.056699266 
       18.87   0.90356176 -0.083431397 
       18.88   0.86198065   -0.1180832 
       18.89   0.87787191  -0.12297669 
        18.9   0.94611549 -0.097769561 
       18.91    0.9209338 -0.096715912 
       18.92   0.88318082  -0.09493767 
       18.93   0.88296028 -0.082509212 
       18.94    0.9293747 -0.058601692 
       18.95   0.94353688 -0.050775041 
       18.96   0.86473257 -0.082793592 
       18.97   0.87980167 -0.087020899 
       18.98   0.92296856 -0.086054822 
       18.99   0.92008267 -0.096245521 
          19   0.86809387  -0.11319835 
       19.01   0.86831337  -0.10320433 
       19.02   0.89799795 -0.082302856 
       19.03   0.90241015 -0.074567897 
       19.04   0.90115654 -0.070101986 
       19.05   0.89648681 -0.064832004 
       19.06   0.89684117 -0.053802034 
       19.07   0.91249652 -0.032262752 
       19.08   0.92067689 -0.013422331 
       19.09   0.89025567 -0.016794563 
        19.1   0.86079942 -0.030279427 
       19.11    0.9055441 -0.020064145 
       19.12   0.94134489 -0.0075428723 
       19.13   0.90803214 -0.012614723 
       19.14   0.88553608 -0.0071417582 
       19.15   0.89295257   0.00945843 
       19.16   0.92964253  0.027155843 
       19.17   0.97088304  0.044228762 
       19.18   0.90044312   0.02806275 
       19.19   0.87127402   0.03245088 
        19.2   0.90061319    0.0519424 
       19.21   0.92968283  0.064470947 
       19.22   0.90062349  0.053359697 
       19.23   0.85399653   0.03107052 
       19.24   0.88194314  0.028116566 
       19.25    0.9042509   0.01892333 
       19.26   0.90721381 0.0051193478 
       19.27   0.89280248 -0.012231778 
       19.28   0.87614609 -0.029341166 
       19.29   0.89530043 -0.032663352 
        19.3   0.94305425 -0.022091475 
       19.31   0.91373881 -0.035552296 
       19.32   0.87363701 -0.054918154 
       19.33   0.89140105 -0.059297528 
       19.34   0.91350375 -0.062592419 
       19.35   0.90657005 -0.070609498 
       19.36   0.84566973 -0.093516978 
       19.37   0.85340222  -0.08923192 
       19.38    0.9014548 -0.069852325 
       19.39   0.90945297 -0.066516276 
        19.4   0.89975754 -0.074111277 
       19.41   0.87914907 -0.089192946 
       19.42   0.87729763 -0.095962123 
       19.43   0.92771934 -0.078130453 
       19.44   0.93244958 -0.069036817 
       19.45   0.87737369 -0.074591408 
       19.46   0.87259497  -0.06094293 
       19.47   0.89465508 -0.041716115 
       19.48   0.90878354 -0.029016921 
       19.49   0.90446741 -0.021533652 
        19.5   0.86803667 -0.018707571 
       19.51   0.84710022 -0.0034828226 
       19.52   0.90485664  0.044140036 
       19.53   0.91401738  0.073640068 
       19.54   0.89455977  0.088056166 
       19.55   0.87834647  0.091597852 
       19.56   0.90835391  0.095381056 
       19.57    0.9485345  0.089881225 
       19.58   0.90315263  0.049214369 
       19.59   0.88243706  0.024676057 
        19.6   0.89764193  0.023404967 
       19.61   0.91681253  0.031611224 
       19.62    0.9152816  0.034000297 
       19.63   0.87019255  0.014132923 
       19.64   0.87077122 0.0029124333 
       19.65   0.92519743   0.00822794 
       19.66   0.92604422 -0.0023459184 
       19.67   0.89300336 -0.016459018 
       19.68   0.88769635 -0.013766533 
       19.69   0.89839306 -0.0042886457 
        19.7   0.91082101 0.0047706876 
       19.71   0.91223542  0.011175077 
       19.72   0.88595999 0.0074988096 
       19.73   0.87367318 0.0047953612 
       19.74   0.91366224    0.0154057 
       19.75   0.93582898  0.014548691 
       19.76   0.88723593 -0.015074927 
       19.77   0.87075287 -0.033444084 
       19.78    0.8955333  -0.03683898 
       19.79   0.91455432 -0.040081632 
        19.8   0.90390547  -0.05227894 
       19.81   0.85133999 -0.076891213 
       19.82   0.86316985 -0.074359564 
       19.83   0.91966303  -0.05422458 
       19.84   0.91063248 -0.058813755 
       19.85   0.88414666 -0.069451239 
       19.86   0.88101609 -0.072024254 
       19.87   0.93458386 -0.053222257 
       19.88   0.94333177  -0.04982745 
       19.89   0.88923427  -0.06879917 
        19.9   0.88741661 -0.066806205 
       19.91   0.90597969  -0.05543916 
       19.92    0.9188409 -0.043283745 
       19.93   0.89212126 -0.044124561 
       19.94   0.85397936 -0.051775963 
       19.95   0.89557168 -0.033984479 
       19.96   0.92772462 -0.022359151 
       19.97   0.90708791 -0.031336828 
       19.98   0.88702009 -0.041949652 
       19.99   0.89422684 -0.046224617 
          20   0.95271088 -0.034416528 
Loop time of 9.32137 on 1 procs for 20000 steps with 864 atoms

Performance: 185380.477 tau/day, 2145.607 timesteps/s
99.6% CPU use with 1 MPI tasks x no OpenMP threads

MPI task timing breakdown:
Section |  min time  |  avg time  |  max time  |%varavg| %total
---------------------------------------------------------------
Pair    | 8.3158     | 8.3158     | 8.3158     |   0.0 | 89.21
Neigh   | 0.56182    | 0.56182    | 0.56182    |   0.0 |  6.03
Comm    | 0.16029    | 0.16029    | 0.16029    |   0.0 |  1.72
Output  | 0.017024   | 0.017024   | 0.017024   |   0.0 |  0.18
Modify  | 0.20858    | 0.20858    | 0.20858    |   0.0 |  2.24
Other   |            | 0.05789    |            |       |  0.62

Nlocal:    864 ave 864 max 864 min
Histogram: 1 0 0 0 0 0 0 0 0 0
Nghost:    2262 ave 2262 max 2262 min
Histogram: 1 0 0 0 0 0 0 0 0 0
Neighs:    38260 ave 38260 max 38260 min
Histogram: 1 0 0 0 0 0 0 0 0 0

Total # of neighbors = 38260
Ave neighs/atom = 44.2824
Neighbor list builds = 509
Dangerous builds = 0
Total wall time: 0:00:09
