Position Data

8000 atoms
2 atom types

0.0 50.396841995794915 xlo xhi
0.0 25.198420997897458 ylo yhi
0.0 25.198420997897458 zlo zhi

Atoms

1 1 0.0 0.0 0.0
2 1 1.259921049894873 1.259921049894873 0.0
3 1 1.259921049894873 0.0 1.259921049894873
4 1 0.0 1.259921049894873 1.259921049894873
5 1 0.0 0.0 2.519842099789746
6 1 1.259921049894873 1.259921049894873 2.519842099789746
7 1 1.259921049894873 0.0 3.779763149684619
8 1 0.0 1.259921049894873 3.779763149684619
9 1 0.0 0.0 5.039684199579492
10 1 1.259921049894873 1.259921049894873 5.039684199579492
11 1 1.259921049894873 0.0 6.299605249474364
12 1 0.0 1.259921049894873 6.299605249474364
13 1 0.0 0.0 7.559526299369238
14 1 1.259921049894873 1.259921049894873 7.559526299369238
15 1 1.259921049894873 0.0 8.819447349264111
16 1 0.0 1.259921049894873 8.819447349264111
17 1 0.0 0.0 10.079368399158984
18 1 1.259921049894873 1.259921049894873 10.079368399158984
19 1 1.259921049894873 0.0 11.339289449053856
20 1 0.0 1.259921049894873 11.339289449053856
21 1 0.0 0.0 12.599210498948729
22 1 1.259921049894873 1.259921049894873 12.599210498948729
23 1 1.259921049894873 0.0 13.859131548843601
24 1 0.0 1.259921049894873 13.859131548843601
25 1 0.0 0.0 15.119052598738476
26 1 1.259921049894873 1.259921049894873 15.119052598738476
27 1 1.259921049894873 0.0 16.378973648633348
28 1 0.0 1.259921049894873 16.378973648633348
29 1 0.0 0.0 17.638894698528222
30 1 1.259921049894873 1.259921049894873 17.638894698528222
31 1 1.259921049894873 0.0 18.898815748423097
32 1 0.0 1.259921049894873 18.898815748423097
33 1 0.0 0.0 20.158736798317967
34 1 1.259921049894873 1.259921049894873 20.158736798317967
35 1 1.259921049894873 0.0 21.418657848212842
36 1 0.0 1.259921049894873 21.418657848212842
37 1 0.0 0.0 22.678578898107713
38 1 1.259921049894873 1.259921049894873 22.678578898107713
39 1 1.259921049894873 0.0 23.938499948002587
40 1 0.0 1.259921049894873 23.938499948002587
41 1 0.0 2.519842099789746 0.0
42 1 1.259921049894873 3.779763149684619 0.0
43 1 1.259921049894873 2.519842099789746 1.259921049894873
44 1 0.0 3.779763149684619 1.259921049894873
45 1 0.0 2.519842099789746 2.519842099789746
46 1 1.259921049894873 3.779763149684619 2.519842099789746
47 1 1.259921049894873 2.519842099789746 3.779763149684619
48 1 0.0 3.779763149684619 3.779763149684619
49 1 0.0 2.519842099789746 5.039684199579492
50 1 1.259921049894873 3.779763149684619 5.039684199579492
51 1 1.259921049894873 2.519842099789746 6.299605249474364
52 1 0.0 3.779763149684619 6.299605249474364
53 1 0.0 2.519842099789746 7.559526299369238
54 1 1.259921049894873 3.779763149684619 7.559526299369238
55 1 1.259921049894873 2.519842099789746 8.819447349264111
56 1 0.0 3.779763149684619 8.819447349264111
57 1 0.0 2.519842099789746 10.079368399158984
58 1 1.259921049894873 3.779763149684619 10.079368399158984
59 1 1.259921049894873 2.519842099789746 11.339289449053856
60 1 0.0 3.779763149684619 11.339289449053856
61 1 0.0 2.519842099789746 12.599210498948729
62 1 1.259921049894873 3.779763149684619 12.599210498948729
63 1 1.259921049894873 2.519842099789746 13.859131548843601
64 1 0.0 3.779763149684619 13.859131548843601
65 1 0.0 2.519842099789746 15.119052598738476
66 1 1.259921049894873 3.779763149684619 15.119052598738476
67 1 1.259921049894873 2.519842099789746 16.378973648633348
68 1 0.0 3.779763149684619 16.378973648633348
69 1 0.0 2.519842099789746 17.638894698528222
70 1 1.259921049894873 3.779763149684619 17.638894698528222
71 1 1.259921049894873 2.519842099789746 18.898815748423097
72 1 0.0 3.779763149684619 18.898815748423097
73 1 0.0 2.519842099789746 20.158736798317967
74 1 1.259921049894873 3.779763149684619 20.158736798317967
75 1 1.259921049894873 2.519842099789746 21.418657848212842
76 1 0.0 3.779763149684619 21.418657848212842
77 1 0.0 2.519842099789746 22.678578898107713
78 1 1.259921049894873 3.779763149684619 22.678578898107713
79 1 1.259921049894873 2.519842099789746 23.938499948002587
80 1 0.0 3.779763149684619 23.938499948002587
81 1 0.0 5.039684199579492 0.0
82 1 1.259921049894873 6.299605249474364 0.0
83 1 1.259921049894873 5.039684199579492 1.259921049894873
84 1 0.0 6.299605249474364 1.259921049894873
85 1 0.0 5.039684199579492 2.519842099789746
86 1 1.259921049894873 6.299605249474364 2.519842099789746
87 1 1.259921049894873 5.039684199579492 3.779763149684619
88 1 0.0 6.299605249474364 3.779763149684619
89 1 0.0 5.039684199579492 5.039684199579492
90 1 1.259921049894873 6.299605249474364 5.039684199579492
91 1 1.259921049894873 5.039684199579492 6.299605249474364
92 1 0.0 6.299605249474364 6.299605249474364
93 1 0.0 5.039684199579492 7.559526299369238
94 1 1.259921049894873 6.299605249474364 7.559526299369238
95 1 1.259921049894873 5.039684199579492 8.819447349264111
96 1 0.0 6.299605249474364 8.819447349264111
97 1 0.0 5.039684199579492 10.079368399158984
98 1 1.259921049894873 6.299605249474364 10.079368399158984
99 1 1.259921049894873 5.039684199579492 11.339289449053856
100 1 0.0 6.299605249474364 11.339289449053856
101 1 0.0 5.039684199579492 12.599210498948729
102 1 1.259921049894873 6.299605249474364 12.599210498948729
103 1 1.259921049894873 5.039684199579492 13.859131548843601
104 1 0.0 6.299605249474364 13.859131548843601
105 1 0.0 5.039684199579492 15.119052598738476
106 1 1.259921049894873 6.299605249474364 15.119052598738476
107 1 1.259921049894873 5.039684199579492 16.378973648633348
108 1 0.0 6.299605249474364 16.378973648633348
109 1 0.0 5.039684199579492 17.638894698528222
110 1 1.259921049894873 6.299605249474364 17.638894698528222
111 1 1.259921049894873 5.039684199579492 18.898815748423097
112 1 0.0 6.299605249474364 18.898815748423097
113 1 0.0 5.039684199579492 20.158736798317967
114 1 1.259921049894873 6.299605249474364 20.158736798317967
115 1 1.259921049894873 5.039684199579492 21.418657848212842
116 1 0.0 6.299605249474364 21.418657848212842
117 1 0.0 5.039684199579492 22.678578898107713
118 1 1.259921049894873 6.299605249474364 22.678578898107713
119 1 1.259921049894873 5.039684199579492 23.938499948002587
120 1 0.0 6.299605249474364 23.938499948002587
121 1 0.0 7.559526299369238 0.0
122 1 1.259921049894873 8.819447349264111 0.0
123 1 1.259921049894873 7.559526299369238 1.259921049894873
124 1 0.0 8.819447349264111 1.259921049894873
125 1 0.0 7.559526299369238 2.519842099789746
126 1 1.259921049894873 8.819447349264111 2.519842099789746
127 1 1.259921049894873 7.559526299369238 3.779763149684619
128 1 0.0 8.819447349264111 3.779763149684619
129 1 0.0 7.559526299369238 5.039684199579492
130 1 1.259921049894873 8.819447349264111 5.039684199579492
131 1 1.259921049894873 7.559526299369238 6.299605249474364
132 1 0.0 8.819447349264111 6.299605249474364
133 1 0.0 7.559526299369238 7.559526299369238
134 1 1.259921049894873 8.819447349264111 7.559526299369238
135 1 1.259921049894873 7.559526299369238 8.819447349264111
136 1 0.0 8.819447349264111 8.819447349264111
137 1 0.0 7.559526299369238 10.079368399158984
138 1 1.259921049894873 8.819447349264111 10.079368399158984
139 1 1.259921049894873 7.559526299369238 11.339289449053856
140 1 0.0 8.819447349264111 11.339289449053856
141 1 0.0 7.559526299369238 12.599210498948729
142 1 1.259921049894873 8.819447349264111 12.599210498948729
143 1 1.259921049894873 7.559526299369238 13.859131548843601
144 1 0.0 8.819447349264111 13.859131548843601
145 1 0.0 7.559526299369238 15.119052598738476
146 1 1.259921049894873 8.819447349264111 15.119052598738476
147 1 1.259921049894873 7.559526299369238 16.378973648633348
148 1 0.0 8.819447349264111 16.378973648633348
149 1 0.0 7.559526299369238 17.638894698528222
150 1 1.259921049894873 8.819447349264111 17.638894698528222
151 1 1.259921049894873 7.559526299369238 18.898815748423097
152 1 0.0 8.819447349264111 18.898815748423097
153 1 0.0 7.559526299369238 20.158736798317967
154 1 1.259921049894873 8.819447349264111 20.158736798317967
155 1 1.259921049894873 7.559526299369238 21.418657848212842
156 1 0.0 8.819447349264111 21.418657848212842
157 1 0.0 7.559526299369238 22.678578898107713
158 1 1.259921049894873 8.819447349264111 22.678578898107713
159 1 1.259921049894873 7.559526299369238 23.938499948002587
160 1 0.0 8.819447349264111 23.938499948002587
161 1 0.0 10.079368399158984 0.0
162 1 1.259921049894873 11.339289449053856 0.0
163 1 1.259921049894873 10.079368399158984 1.259921049894873
164 1 0.0 11.339289449053856 1.259921049894873
165 1 0.0 10.079368399158984 2.519842099789746
166 1 1.259921049894873 11.339289449053856 2.519842099789746
167 1 1.259921049894873 10.079368399158984 3.779763149684619
168 1 0.0 11.339289449053856 3.779763149684619
169 1 0.0 10.079368399158984 5.039684199579492
170 1 1.259921049894873 11.339289449053856 5.039684199579492
171 1 1.259921049894873 10.079368399158984 6.299605249474364
172 1 0.0 11.339289449053856 6.299605249474364
173 1 0.0 10.079368399158984 7.559526299369238
174 1 1.259921049894873 11.339289449053856 7.559526299369238
175 1 1.259921049894873 10.079368399158984 8.819447349264111
176 1 0.0 11.339289449053856 8.819447349264111
177 1 0.0 10.079368399158984 10.079368399158984
178 1 1.259921049894873 11.339289449053856 10.079368399158984
179 1 1.259921049894873 10.079368399158984 11.339289449053856
180 1 0.0 11.339289449053856 11.339289449053856
181 1 0.0 10.079368399158984 12.599210498948729
182 1 1.259921049894873 11.339289449053856 12.599210498948729
183 1 1.259921049894873 10.079368399158984 13.859131548843601
184 1 0.0 11.339289449053856 13.859131548843601
185 1 0.0 10.079368399158984 15.119052598738476
186 1 1.259921049894873 11.339289449053856 15.119052598738476
187 1 1.259921049894873 10.079368399158984 16.378973648633348
188 1 0.0 11.339289449053856 16.378973648633348
189 1 0.0 10.079368399158984 17.638894698528222
190 1 1.259921049894873 11.339289449053856 17.638894698528222
191 1 1.259921049894873 10.079368399158984 18.898815748423097
192 1 0.0 11.339289449053856 18.898815748423097
193 1 0.0 10.079368399158984 20.158736798317967
194 1 1.259921049894873 11.339289449053856 20.158736798317967
195 1 1.259921049894873 10.079368399158984 21.418657848212842
196 1 0.0 11.339289449053856 21.418657848212842
197 1 0.0 10.079368399158984 22.678578898107713
198 1 1.259921049894873 11.339289449053856 22.678578898107713
199 1 1.259921049894873 10.079368399158984 23.938499948002587
200 1 0.0 11.339289449053856 23.938499948002587
201 1 0.0 12.599210498948729 0.0
202 1 1.259921049894873 13.859131548843601 0.0
203 1 1.259921049894873 12.599210498948729 1.259921049894873
204 1 0.0 13.859131548843601 1.259921049894873
205 1 0.0 12.599210498948729 2.519842099789746
206 1 1.259921049894873 13.859131548843601 2.519842099789746
207 1 1.259921049894873 12.599210498948729 3.779763149684619
208 1 0.0 13.859131548843601 3.779763149684619
209 1 0.0 12.599210498948729 5.039684199579492
210 1 1.259921049894873 13.859131548843601 5.039684199579492
211 1 1.259921049894873 12.599210498948729 6.299605249474364
212 1 0.0 13.859131548843601 6.299605249474364
213 1 0.0 12.599210498948729 7.559526299369238
214 1 1.259921049894873 13.859131548843601 7.559526299369238
215 1 1.259921049894873 12.599210498948729 8.819447349264111
216 1 0.0 13.859131548843601 8.819447349264111
217 1 0.0 12.599210498948729 10.079368399158984
218 1 1.259921049894873 13.859131548843601 10.079368399158984
219 1 1.259921049894873 12.599210498948729 11.339289449053856
220 1 0.0 13.859131548843601 11.339289449053856
221 1 0.0 12.599210498948729 12.599210498948729
222 1 1.259921049894873 13.859131548843601 12.599210498948729
223 1 1.259921049894873 12.599210498948729 13.859131548843601
224 1 0.0 13.859131548843601 13.859131548843601
225 1 0.0 12.599210498948729 15.119052598738476
226 1 1.259921049894873 13.859131548843601 15.119052598738476
227 1 1.259921049894873 12.599210498948729 16.378973648633348
228 1 0.0 13.859131548843601 16.378973648633348
229 1 0.0 12.599210498948729 17.638894698528222
230 1 1.259921049894873 13.859131548843601 17.638894698528222
231 1 1.259921049894873 12.599210498948729 18.898815748423097
232 1 0.0 13.859131548843601 18.898815748423097
233 1 0.0 12.599210498948729 20.158736798317967
234 1 1.259921049894873 13.859131548843601 20.158736798317967
235 1 1.259921049894873 12.599210498948729 21.418657848212842
236 1 0.0 13.859131548843601 21.418657848212842
237 1 0.0 12.599210498948729 22.678578898107713
238 1 1.259921049894873 13.859131548843601 22.678578898107713
239 1 1.259921049894873 12.599210498948729 23.938499948002587
240 1 0.0 13.859131548843601 23.938499948002587
241 1 0.0 15.119052598738476 0.0
242 1 1.259921049894873 16.378973648633348 0.0
243 1 1.259921049894873 15.119052598738476 1.259921049894873
244 1 0.0 16.378973648633348 1.259921049894873
245 1 0.0 15.119052598738476 2.519842099789746
246 1 1.259921049894873 16.378973648633348 2.519842099789746
247 1 1.259921049894873 15.119052598738476 3.779763149684619
248 1 0.0 16.378973648633348 3.779763149684619
249 1 0.0 15.119052598738476 5.039684199579492
250 1 1.259921049894873 16.378973648633348 5.039684199579492
251 1 1.259921049894873 15.119052598738476 6.299605249474364
252 1 0.0 16.378973648633348 6.299605249474364
253 1 0.0 15.119052598738476 7.559526299369238
254 1 1.259921049894873 16.378973648633348 7.559526299369238
255 1 1.259921049894873 15.119052598738476 8.819447349264111
256 1 0.0 16.378973648633348 8.819447349264111
257 1 0.0 15.119052598738476 10.079368399158984
258 1 1.259921049894873 16.378973648633348 10.079368399158984
259 1 1.259921049894873 15.119052598738476 11.339289449053856
260 1 0.0 16.378973648633348 11.339289449053856
261 1 0.0 15.119052598738476 12.599210498948729
262 1 1.259921049894873 16.378973648633348 12.599210498948729
263 1 1.259921049894873 15.119052598738476 13.859131548843601
264 1 0.0 16.378973648633348 13.859131548843601
265 1 0.0 15.119052598738476 15.119052598738476
266 1 1.259921049894873 16.378973648633348 15.119052598738476
267 1 1.259921049894873 15.119052598738476 16.378973648633348
268 1 0.0 16.378973648633348 16.378973648633348
269 1 0.0 15.119052598738476 17.638894698528222
270 1 1.259921049894873 16.378973648633348 17.638894698528222
271 1 1.259921049894873 15.119052598738476 18.898815748423097
272 1 0.0 16.378973648633348 18.898815748423097
273 1 0.0 15.119052598738476 20.158736798317967
274 1 1.259921049894873 16.378973648633348 20.158736798317967
275 1 1.259921049894873 15.119052598738476 21.418657848212842
276 1 0.0 16.378973648633348 21.418657848212842
277 1 0.0 15.119052598738476 22.678578898107713
278 1 1.259921049894873 16.378973648633348 22.678578898107713
279 1 1.259921049894873 15.119052598738476 23.938499948002587
280 1 0.0 16.378973648633348 23.938499948002587
281 1 0.0 17.638894698528222 0.0
282 1 1.259921049894873 18.898815748423097 0.0
283 1 1.259921049894873 17.638894698528222 1.259921049894873
284 1 0.0 18.898815748423097 1.259921049894873
285 1 0.0 17.638894698528222 2.519842099789746
286 1 1.259921049894873 18.898815748423097 2.519842099789746
287 1 1.259921049894873 17.638894698528222 3.779763149684619
288 1 0.0 18.898815748423097 3.779763149684619
289 1 0.0 17.638894698528222 5.039684199579492
290 1 1.259921049894873 18.898815748423097 5.039684199579492
291 1 1.259921049894873 17.638894698528222 6.299605249474364
292 1 0.0 18.898815748423097 6.299605249474364
293 1 0.0 17.638894698528222 7.559526299369238
294 1 1.259921049894873 18.898815748423097 7.559526299369238
295 1 1.259921049894873 17.638894698528222 8.819447349264111
296 1 0.0 18.898815748423097 8.819447349264111
297 1 0.0 17.638894698528222 10.079368399158984
298 1 1.259921049894873 18.898815748423097 10.079368399158984
299 1 1.259921049894873 17.638894698528222 11.339289449053856
300 1 0.0 18.898815748423097 11.339289449053856
301 1 0.0 17.638894698528222 12.599210498948729
302 1 1.259921049894873 18.898815748423097 12.599210498948729
303 1 1.259921049894873 17.638894698528222 13.859131548843601
304 1 0.0 18.898815748423097 13.859131548843601
305 1 0.0 17.638894698528222 15.119052598738476
306 1 1.259921049894873 18.898815748423097 15.119052598738476
307 1 1.259921049894873 17.638894698528222 16.378973648633348
308 1 0.0 18.898815748423097 16.378973648633348
309 1 0.0 17.638894698528222 17.638894698528222
310 1 1.259921049894873 18.898815748423097 17.638894698528222
311 1 1.259921049894873 17.638894698528222 18.898815748423097
312 1 0.0 18.898815748423097 18.898815748423097
313 1 0.0 17.638894698528222 20.158736798317967
314 1 1.259921049894873 18.898815748423097 20.158736798317967
315 1 1.259921049894873 17.638894698528222 21.418657848212842
316 1 0.0 18.898815748423097 21.418657848212842
317 1 0.0 17.638894698528222 22.678578898107713
318 1 1.259921049894873 18.898815748423097 22.678578898107713
319 1 1.259921049894873 17.638894698528222 23.938499948002587
320 1 0.0 18.898815748423097 23.938499948002587
321 1 0.0 20.158736798317967 0.0
322 1 1.259921049894873 21.418657848212842 0.0
323 1 1.259921049894873 20.158736798317967 1.259921049894873
324 1 0.0 21.418657848212842 1.259921049894873
325 1 0.0 20.158736798317967 2.519842099789746
326 1 1.259921049894873 21.418657848212842 2.519842099789746
327 1 1.259921049894873 20.158736798317967 3.779763149684619
328 1 0.0 21.418657848212842 3.779763149684619
329 1 0.0 20.158736798317967 5.039684199579492
330 1 1.259921049894873 21.418657848212842 5.039684199579492
331 1 1.259921049894873 20.158736798317967 6.299605249474364
332 1 0.0 21.418657848212842 6.299605249474364
333 1 0.0 20.158736798317967 7.559526299369238
334 1 1.259921049894873 21.418657848212842 7.559526299369238
335 1 1.259921049894873 20.158736798317967 8.819447349264111
336 1 0.0 21.418657848212842 8.819447349264111
337 1 0.0 20.158736798317967 10.079368399158984
338 1 1.259921049894873 21.418657848212842 10.079368399158984
339 1 1.259921049894873 20.158736798317967 11.339289449053856
340 1 0.0 21.418657848212842 11.339289449053856
341 1 0.0 20.158736798317967 12.599210498948729
342 1 1.259921049894873 21.418657848212842 12.599210498948729
343 1 1.259921049894873 20.158736798317967 13.859131548843601
344 1 0.0 21.418657848212842 13.859131548843601
345 1 0.0 20.158736798317967 15.119052598738476
346 1 1.259921049894873 21.418657848212842 15.119052598738476
347 1 1.259921049894873 20.158736798317967 16.378973648633348
348 1 0.0 21.418657848212842 16.378973648633348
349 1 0.0 20.158736798317967 17.638894698528222
350 1 1.259921049894873 21.418657848212842 17.638894698528222
351 1 1.259921049894873 20.158736798317967 18.898815748423097
352 1 0.0 21.418657848212842 18.898815748423097
353 1 0.0 20.158736798317967 20.158736798317967
354 1 1.259921049894873 21.418657848212842 20.158736798317967
355 1 1.259921049894873 20.158736798317967 21.418657848212842
356 1 0.0 21.418657848212842 21.418657848212842
357 1 0.0 20.158736798317967 22.678578898107713
358 1 1.259921049894873 21.418657848212842 22.678578898107713
359 1 1.259921049894873 20.158736798317967 23.938499948002587
360 1 0.0 21.418657848212842 23.938499948002587
361 1 0.0 22.678578898107713 0.0
362 1 1.259921049894873 23.938499948002587 0.0
363 1 1.259921049894873 22.678578898107713 1.259921049894873
364 1 0.0 23.938499948002587 1.259921049894873
365 1 0.0 22.678578898107713 2.519842099789746
366 1 1.259921049894873 23.938499948002587 2.519842099789746
367 1 1.259921049894873 22.678578898107713 3.779763149684619
368 1 0.0 23.938499948002587 3.779763149684619
369 1 0.0 22.678578898107713 5.039684199579492
370 1 1.259921049894873 23.938499948002587 5.039684199579492
371 1 1.259921049894873 22.678578898107713 6.299605249474364
372 1 0.0 23.938499948002587 6.299605249474364
373 1 0.0 22.678578898107713 7.559526299369238
374 1 1.259921049894873 23.938499948002587 7.559526299369238
375 1 1.259921049894873 22.678578898107713 8.819447349264111
376 1 0.0 23.938499948002587 8.819447349264111
377 1 0.0 22.678578898107713 10.079368399158984
378 1 1.259921049894873 23.938499948002587 10.079368399158984
379 1 1.259921049894873 22.678578898107713 11.339289449053856
380 1 0.0 23.938499948002587 11.339289449053856
381 1 0.0 22.678578898107713 12.599210498948729
382 1 1.259921049894873 23.938499948002587 12.599210498948729
383 1 1.259921049894873 22.678578898107713 13.859131548843601
384 1 0.0 23.938499948002587 13.859131548843601
385 1 0.0 22.678578898107713 15.119052598738476
386 1 1.259921049894873 23.938499948002587 15.119052598738476
387 1 1.259921049894873 22.678578898107713 16.378973648633348
388 1 0.0 23.938499948002587 16.378973648633348
389 1 0.0 22.678578898107713 17.638894698528222
390 1 1.259921049894873 23.938499948002587 17.638894698528222
391 1 1.259921049894873 22.678578898107713 18.898815748423097
392 1 0.0 23.938499948002587 18.898815748423097
393 1 0.0 22.678578898107713 20.158736798317967
394 1 1.259921049894873 23.938499948002587 20.158736798317967
395 1 1.259921049894873 22.678578898107713 21.418657848212842
396 1 0.0 23.938499948002587 21.418657848212842
397 1 0.0 22.678578898107713 22.678578898107713
398 1 1.259921049894873 23.938499948002587 22.678578898107713
399 1 1.259921049894873 22.678578898107713 23.938499948002587
400 1 0.0 23.938499948002587 23.938499948002587
401 1 2.519842099789746 0.0 0.0
402 1 3.779763149684619 1.259921049894873 0.0
403 1 3.779763149684619 0.0 1.259921049894873
404 1 2.519842099789746 1.259921049894873 1.259921049894873
405 1 2.519842099789746 0.0 2.519842099789746
406 1 3.779763149684619 1.259921049894873 2.519842099789746
407 1 3.779763149684619 0.0 3.779763149684619
408 1 2.519842099789746 1.259921049894873 3.779763149684619
409 1 2.519842099789746 0.0 5.039684199579492
410 1 3.779763149684619 1.259921049894873 5.039684199579492
411 1 3.779763149684619 0.0 6.299605249474364
412 1 2.519842099789746 1.259921049894873 6.299605249474364
413 1 2.519842099789746 0.0 7.559526299369238
414 1 3.779763149684619 1.259921049894873 7.559526299369238
415 1 3.779763149684619 0.0 8.819447349264111
416 1 2.519842099789746 1.259921049894873 8.819447349264111
417 1 2.519842099789746 0.0 10.079368399158984
418 1 3.779763149684619 1.259921049894873 10.079368399158984
419 1 3.779763149684619 0.0 11.339289449053856
420 1 2.519842099789746 1.259921049894873 11.339289449053856
421 1 2.519842099789746 0.0 12.599210498948729
422 1 3.779763149684619 1.259921049894873 12.599210498948729
423 1 3.779763149684619 0.0 13.859131548843601
424 1 2.519842099789746 1.259921049894873 13.859131548843601
425 1 2.519842099789746 0.0 15.119052598738476
426 1 3.779763149684619 1.259921049894873 15.119052598738476
427 1 3.779763149684619 0.0 16.378973648633348
428 1 2.519842099789746 1.259921049894873 16.378973648633348
429 1 2.519842099789746 0.0 17.638894698528222
430 1 3.779763149684619 1.259921049894873 17.638894698528222
431 1 3.779763149684619 0.0 18.898815748423097
432 1 2.519842099789746 1.259921049894873 18.898815748423097
433 1 2.519842099789746 0.0 20.158736798317967
434 1 3.779763149684619 1.259921049894873 20.158736798317967
435 1 3.779763149684619 0.0 21.418657848212842
436 1 2.519842099789746 1.259921049894873 21.418657848212842
437 1 2.519842099789746 0.0 22.678578898107713
438 1 3.779763149684619 1.259921049894873 22.678578898107713
439 1 3.779763149684619 0.0 23.938499948002587
440 1 2.519842099789746 1.259921049894873 23.938499948002587
441 1 2.519842099789746 2.519842099789746 0.0
442 1 3.779763149684619 3.779763149684619 0.0
443 1 3.779763149684619 2.519842099789746 1.259921049894873
444 1 2.519842099789746 3.779763149684619 1.259921049894873
445 1 2.519842099789746 2.519842099789746 2.519842099789746
446 1 3.779763149684619 3.779763149684619 2.519842099789746
447 1 3.779763149684619 2.519842099789746 3.779763149684619
448 1 2.519842099789746 3.779763149684619 3.779763149684619
449 1 2.519842099789746 2.519842099789746 5.039684199579492
450 1 3.779763149684619 3.779763149684619 5.039684199579492
451 1 3.779763149684619 2.519842099789746 6.299605249474364
452 1 2.519842099789746 3.779763149684619 6.299605249474364
453 1 2.519842099789746 2.519842099789746 7.559526299369238
454 1 3.779763149684619 3.779763149684619 7.559526299369238
455 1 3.779763149684619 2.519842099789746 8.819447349264111
456 1 2.519842099789746 3.779763149684619 8.819447349264111
457 1 2.519842099789746 2.519842099789746 10.079368399158984
458 1 3.779763149684619 3.779763149684619 10.079368399158984
459 1 3.779763149684619 2.519842099789746 11.339289449053856
460 1 2.519842099789746 3.779763149684619 11.339289449053856
461 1 2.519842099789746 2.519842099789746 12.599210498948729
462 1 3.779763149684619 3.779763149684619 12.599210498948729
463 1 3.779763149684619 2.519842099789746 13.859131548843601
464 1 2.519842099789746 3.779763149684619 13.859131548843601
465 1 2.519842099789746 2.519842099789746 15.119052598738476
466 1 3.779763149684619 3.779763149684619 15.119052598738476
467 1 3.779763149684619 2.519842099789746 16.378973648633348
468 1 2.519842099789746 3.779763149684619 16.378973648633348
469 1 2.519842099789746 2.519842099789746 17.638894698528222
470 1 3.779763149684619 3.779763149684619 17.638894698528222
471 1 3.779763149684619 2.519842099789746 18.898815748423097
472 1 2.519842099789746 3.779763149684619 18.898815748423097
473 1 2.519842099789746 2.519842099789746 20.158736798317967
474 1 3.779763149684619 3.779763149684619 20.158736798317967
475 1 3.779763149684619 2.519842099789746 21.418657848212842
476 1 2.519842099789746 3.779763149684619 21.418657848212842
477 1 2.519842099789746 2.519842099789746 22.678578898107713
478 1 3.779763149684619 3.779763149684619 22.678578898107713
479 1 3.779763149684619 2.519842099789746 23.938499948002587
480 1 2.519842099789746 3.779763149684619 23.938499948002587
481 1 2.519842099789746 5.039684199579492 0.0
482 1 3.779763149684619 6.299605249474364 0.0
483 1 3.779763149684619 5.039684199579492 1.259921049894873
484 1 2.519842099789746 6.299605249474364 1.259921049894873
485 1 2.519842099789746 5.039684199579492 2.519842099789746
486 1 3.779763149684619 6.299605249474364 2.519842099789746
487 1 3.779763149684619 5.039684199579492 3.779763149684619
488 1 2.519842099789746 6.299605249474364 3.779763149684619
489 1 2.519842099789746 5.039684199579492 5.039684199579492
490 1 3.779763149684619 6.299605249474364 5.039684199579492
491 1 3.779763149684619 5.039684199579492 6.299605249474364
492 1 2.519842099789746 6.299605249474364 6.299605249474364
493 1 2.519842099789746 5.039684199579492 7.559526299369238
494 1 3.779763149684619 6.299605249474364 7.559526299369238
495 1 3.779763149684619 5.039684199579492 8.819447349264111
496 1 2.519842099789746 6.299605249474364 8.819447349264111
497 1 2.519842099789746 5.039684199579492 10.079368399158984
498 1 3.779763149684619 6.299605249474364 10.079368399158984
499 1 3.779763149684619 5.039684199579492 11.339289449053856
500 1 2.519842099789746 6.299605249474364 11.339289449053856
501 1 2.519842099789746 5.039684199579492 12.599210498948729
502 1 3.779763149684619 6.299605249474364 12.599210498948729
503 1 3.779763149684619 5.039684199579492 13.859131548843601
504 1 2.519842099789746 6.299605249474364 13.859131548843601
505 1 2.519842099789746 5.039684199579492 15.119052598738476
506 1 3.779763149684619 6.299605249474364 15.119052598738476
507 1 3.779763149684619 5.039684199579492 16.378973648633348
508 1 2.519842099789746 6.299605249474364 16.378973648633348
509 1 2.519842099789746 5.039684199579492 17.638894698528222
510 1 3.779763149684619 6.299605249474364 17.638894698528222
511 1 3.779763149684619 5.039684199579492 18.898815748423097
512 1 2.519842099789746 6.299605249474364 18.898815748423097
513 1 2.519842099789746 5.039684199579492 20.158736798317967
514 1 3.779763149684619 6.299605249474364 20.158736798317967
515 1 3.779763149684619 5.039684199579492 21.418657848212842
516 1 2.519842099789746 6.299605249474364 21.418657848212842
517 1 2.519842099789746 5.039684199579492 22.678578898107713
518 1 3.779763149684619 6.299605249474364 22.678578898107713
519 1 3.779763149684619 5.039684199579492 23.938499948002587
520 1 2.519842099789746 6.299605249474364 23.938499948002587
521 1 2.519842099789746 7.559526299369238 0.0
522 1 3.779763149684619 8.819447349264111 0.0
523 1 3.779763149684619 7.559526299369238 1.259921049894873
524 1 2.519842099789746 8.819447349264111 1.259921049894873
525 1 2.519842099789746 7.559526299369238 2.519842099789746
526 1 3.779763149684619 8.819447349264111 2.519842099789746
527 1 3.779763149684619 7.559526299369238 3.779763149684619
528 1 2.519842099789746 8.819447349264111 3.779763149684619
529 1 2.519842099789746 7.559526299369238 5.039684199579492
530 1 3.779763149684619 8.819447349264111 5.039684199579492
531 1 3.779763149684619 7.559526299369238 6.299605249474364
532 1 2.519842099789746 8.819447349264111 6.299605249474364
533 1 2.519842099789746 7.559526299369238 7.559526299369238
534 1 3.779763149684619 8.819447349264111 7.559526299369238
535 1 3.779763149684619 7.559526299369238 8.819447349264111
536 1 2.519842099789746 8.819447349264111 8.819447349264111
537 1 2.519842099789746 7.559526299369238 10.079368399158984
538 1 3.779763149684619 8.819447349264111 10.079368399158984
539 1 3.779763149684619 7.559526299369238 11.339289449053856
540 1 2.519842099789746 8.819447349264111 11.339289449053856
541 1 2.519842099789746 7.559526299369238 12.599210498948729
542 1 3.779763149684619 8.819447349264111 12.599210498948729
543 1 3.779763149684619 7.559526299369238 13.859131548843601
544 1 2.519842099789746 8.819447349264111 13.859131548843601
545 1 2.519842099789746 7.559526299369238 15.119052598738476
546 1 3.779763149684619 8.819447349264111 15.119052598738476
547 1 3.779763149684619 7.559526299369238 16.378973648633348
548 1 2.519842099789746 8.819447349264111 16.378973648633348
549 1 2.519842099789746 7.559526299369238 17.638894698528222
550 1 3.779763149684619 8.819447349264111 17.638894698528222
551 1 3.779763149684619 7.559526299369238 18.898815748423097
552 1 2.519842099789746 8.819447349264111 18.898815748423097