Position Data

10648 atoms
2 atom types

0.0 50.396841995794915 xlo xhi
0.0 25.198420997897458 ylo yhi
0.0 25.198420997897458 zlo zhi

Atoms

1 1 0.0 0.0 0.0
2 1 1.1453827726317025 1.1453827726317025 0.0
3 1 1.1453827726317025 0.0 1.1453827726317025
4 1 0.0 1.1453827726317025 1.1453827726317025
5 1 0.0 0.0 2.290765545263405
6 1 1.1453827726317025 1.1453827726317025 2.290765545263405
7 1 1.1453827726317025 0.0 3.4361483178951078
8 1 0.0 1.1453827726317025 3.4361483178951078
9 1 0.0 0.0 4.58153109052681
10 1 1.1453827726317025 1.1453827726317025 4.58153109052681
11 1 1.1453827726317025 0.0 5.726913863158512
12 1 0.0 1.1453827726317025 5.726913863158512
13 1 0.0 0.0 6.8722966357902155
14 1 1.1453827726317025 1.1453827726317025 6.8722966357902155
15 1 1.1453827726317025 0.0 8.017679408421918
16 1 0.0 1.1453827726317025 8.017679408421918
17 1 0.0 0.0 9.16306218105362
18 1 1.1453827726317025 1.1453827726317025 9.16306218105362
19 1 1.1453827726317025 0.0 10.308444953685322
20 1 0.0 1.1453827726317025 10.308444953685322
21 1 0.0 0.0 11.453827726317025
22 1 1.1453827726317025 1.1453827726317025 11.453827726317025
23 1 1.1453827726317025 0.0 12.599210498948727
24 1 0.0 1.1453827726317025 12.599210498948727
25 1 0.0 0.0 13.744593271580431
26 1 1.1453827726317025 1.1453827726317025 13.744593271580431
27 1 1.1453827726317025 0.0 14.889976044212133
28 1 0.0 1.1453827726317025 14.889976044212133
29 1 0.0 0.0 16.035358816843836
30 1 1.1453827726317025 1.1453827726317025 16.035358816843836
31 1 1.1453827726317025 0.0 17.180741589475538
32 1 0.0 1.1453827726317025 17.180741589475538
33 1 0.0 0.0 18.32612436210724
34 1 1.1453827726317025 1.1453827726317025 18.32612436210724
35 1 1.1453827726317025 0.0 19.471507134738943
36 1 0.0 1.1453827726317025 19.471507134738943
37 1 0.0 0.0 20.616889907370645
38 1 1.1453827726317025 1.1453827726317025 20.616889907370645
39 1 1.1453827726317025 0.0 21.762272680002347
40 1 0.0 1.1453827726317025 21.762272680002347
41 1 0.0 0.0 22.90765545263405
42 1 1.1453827726317025 1.1453827726317025 22.90765545263405
43 1 1.1453827726317025 0.0 24.05303822526575
44 1 0.0 1.1453827726317025 24.05303822526575
45 1 0.0 2.290765545263405 0.0
46 1 1.1453827726317025 3.4361483178951078 0.0
47 1 1.1453827726317025 2.290765545263405 1.1453827726317025
48 1 0.0 3.4361483178951078 1.1453827726317025
49 1 0.0 2.290765545263405 2.290765545263405
50 1 1.1453827726317025 3.4361483178951078 2.290765545263405
51 1 1.1453827726317025 2.290765545263405 3.4361483178951078
52 1 0.0 3.4361483178951078 3.4361483178951078
53 1 0.0 2.290765545263405 4.58153109052681
54 1 1.1453827726317025 3.4361483178951078 4.58153109052681
55 1 1.1453827726317025 2.290765545263405 5.726913863158512
56 1 0.0 3.4361483178951078 5.726913863158512
57 1 0.0 2.290765545263405 6.8722966357902155
58 1 1.1453827726317025 3.4361483178951078 6.8722966357902155
59 1 1.1453827726317025 2.290765545263405 8.017679408421918
60 1 0.0 3.4361483178951078 8.017679408421918
61 1 0.0 2.290765545263405 9.16306218105362
62 1 1.1453827726317025 3.4361483178951078 9.16306218105362
63 1 1.1453827726317025 2.290765545263405 10.308444953685322
64 1 0.0 3.4361483178951078 10.308444953685322
65 1 0.0 2.290765545263405 11.453827726317025
66 1 1.1453827726317025 3.4361483178951078 11.453827726317025
67 1 1.1453827726317025 2.290765545263405 12.599210498948727
68 1 0.0 3.4361483178951078 12.599210498948727
69 1 0.0 2.290765545263405 13.744593271580431
70 1 1.1453827726317025 3.4361483178951078 13.744593271580431
71 1 1.1453827726317025 2.290765545263405 14.889976044212133
72 1 0.0 3.4361483178951078 14.889976044212133
73 1 0.0 2.290765545263405 16.035358816843836
74 1 1.1453827726317025 3.4361483178951078 16.035358816843836
75 1 1.1453827726317025 2.290765545263405 17.180741589475538
76 1 0.0 3.4361483178951078 17.180741589475538
77 1 0.0 2.290765545263405 18.32612436210724
78 1 1.1453827726317025 3.4361483178951078 18.32612436210724
79 1 1.1453827726317025 2.290765545263405 19.471507134738943
80 1 0.0 3.4361483178951078 19.471507134738943
81 1 0.0 2.290765545263405 20.616889907370645
82 1 1.1453827726317025 3.4361483178951078 20.616889907370645
83 1 1.1453827726317025 2.290765545263405 21.762272680002347
84 1 0.0 3.4361483178951078 21.762272680002347
85 1 0.0 2.290765545263405 22.90765545263405
86 1 1.1453827726317025 3.4361483178951078 22.90765545263405
87 1 1.1453827726317025 2.290765545263405 24.05303822526575
88 1 0.0 3.4361483178951078 24.05303822526575
89 1 0.0 4.58153109052681 0.0
90 1 1.1453827726317025 5.726913863158512 0.0
91 1 1.1453827726317025 4.58153109052681 1.1453827726317025
92 1 0.0 5.726913863158512 1.1453827726317025
93 1 0.0 4.58153109052681 2.290765545263405
94 1 1.1453827726317025 5.726913863158512 2.290765545263405
95 1 1.1453827726317025 4.58153109052681 3.4361483178951078
96 1 0.0 5.726913863158512 3.4361483178951078
97 1 0.0 4.58153109052681 4.58153109052681
98 1 1.1453827726317025 5.726913863158512 4.58153109052681
99 1 1.1453827726317025 4.58153109052681 5.726913863158512
100 1 0.0 5.726913863158512 5.726913863158512
101 1 0.0 4.58153109052681 6.8722966357902155
102 1 1.1453827726317025 5.726913863158512 6.8722966357902155
103 1 1.1453827726317025 4.58153109052681 8.017679408421918
104 1 0.0 5.726913863158512 8.017679408421918
105 1 0.0 4.58153109052681 9.16306218105362
106 1 1.1453827726317025 5.726913863158512 9.16306218105362
107 1 1.1453827726317025 4.58153109052681 10.308444953685322
108 1 0.0 5.726913863158512 10.308444953685322
109 1 0.0 4.58153109052681 11.453827726317025
110 1 1.1453827726317025 5.726913863158512 11.453827726317025
111 1 1.1453827726317025 4.58153109052681 12.599210498948727
112 1 0.0 5.726913863158512 12.599210498948727
113 1 0.0 4.58153109052681 13.744593271580431
114 1 1.1453827726317025 5.726913863158512 13.744593271580431
115 1 1.1453827726317025 4.58153109052681 14.889976044212133
116 1 0.0 5.726913863158512 14.889976044212133
117 1 0.0 4.58153109052681 16.035358816843836
118 1 1.1453827726317025 5.726913863158512 16.035358816843836
119 1 1.1453827726317025 4.58153109052681 17.180741589475538
120 1 0.0 5.726913863158512 17.180741589475538
121 1 0.0 4.58153109052681 18.32612436210724
122 1 1.1453827726317025 5.726913863158512 18.32612436210724
123 1 1.1453827726317025 4.58153109052681 19.471507134738943
124 1 0.0 5.726913863158512 19.471507134738943
125 1 0.0 4.58153109052681 20.616889907370645
126 1 1.1453827726317025 5.726913863158512 20.616889907370645
127 1 1.1453827726317025 4.58153109052681 21.762272680002347
128 1 0.0 5.726913863158512 21.762272680002347
129 1 0.0 4.58153109052681 22.90765545263405
130 1 1.1453827726317025 5.726913863158512 22.90765545263405
131 1 1.1453827726317025 4.58153109052681 24.05303822526575
132 1 0.0 5.726913863158512 24.05303822526575
133 1 0.0 6.8722966357902155 0.0
134 1 1.1453827726317025 8.017679408421918 0.0
135 1 1.1453827726317025 6.8722966357902155 1.1453827726317025
136 1 0.0 8.017679408421918 1.1453827726317025
137 1 0.0 6.8722966357902155 2.290765545263405
138 1 1.1453827726317025 8.017679408421918 2.290765545263405
139 1 1.1453827726317025 6.8722966357902155 3.4361483178951078
140 1 0.0 8.017679408421918 3.4361483178951078
141 1 0.0 6.8722966357902155 4.58153109052681
142 1 1.1453827726317025 8.017679408421918 4.58153109052681
143 1 1.1453827726317025 6.8722966357902155 5.726913863158512
144 1 0.0 8.017679408421918 5.726913863158512
145 1 0.0 6.8722966357902155 6.8722966357902155
146 1 1.1453827726317025 8.017679408421918 6.8722966357902155
147 1 1.1453827726317025 6.8722966357902155 8.017679408421918
148 1 0.0 8.017679408421918 8.017679408421918
149 1 0.0 6.8722966357902155 9.16306218105362
150 1 1.1453827726317025 8.017679408421918 9.16306218105362
151 1 1.1453827726317025 6.8722966357902155 10.308444953685322
152 1 0.0 8.017679408421918 10.308444953685322
153 1 0.0 6.8722966357902155 11.453827726317025
154 1 1.1453827726317025 8.017679408421918 11.453827726317025
155 1 1.1453827726317025 6.8722966357902155 12.599210498948727
156 1 0.0 8.017679408421918 12.599210498948727
157 1 0.0 6.8722966357902155 13.744593271580431
158 1 1.1453827726317025 8.017679408421918 13.744593271580431
159 1 1.1453827726317025 6.8722966357902155 14.889976044212133
160 1 0.0 8.017679408421918 14.889976044212133
161 1 0.0 6.8722966357902155 16.035358816843836
162 1 1.1453827726317025 8.017679408421918 16.035358816843836
163 1 1.1453827726317025 6.8722966357902155 17.180741589475538
164 1 0.0 8.017679408421918 17.180741589475538
165 1 0.0 6.8722966357902155 18.32612436210724
166 1 1.1453827726317025 8.017679408421918 18.32612436210724
167 1 1.1453827726317025 6.8722966357902155 19.471507134738943
168 1 0.0 8.017679408421918 19.471507134738943
169 1 0.0 6.8722966357902155 20.616889907370645
170 1 1.1453827726317025 8.017679408421918 20.616889907370645
171 1 1.1453827726317025 6.8722966357902155 21.762272680002347
172 1 0.0 8.017679408421918 21.762272680002347
173 1 0.0 6.8722966357902155 22.90765545263405
174 1 1.1453827726317025 8.017679408421918 22.90765545263405
175 1 1.1453827726317025 6.8722966357902155 24.05303822526575
176 1 0.0 8.017679408421918 24.05303822526575
177 1 0.0 9.16306218105362 0.0
178 1 1.1453827726317025 10.308444953685322 0.0
179 1 1.1453827726317025 9.16306218105362 1.1453827726317025
180 1 0.0 10.308444953685322 1.1453827726317025
181 1 0.0 9.16306218105362 2.290765545263405
182 1 1.1453827726317025 10.308444953685322 2.290765545263405
183 1 1.1453827726317025 9.16306218105362 3.4361483178951078
184 1 0.0 10.308444953685322 3.4361483178951078
185 1 0.0 9.16306218105362 4.58153109052681
186 1 1.1453827726317025 10.308444953685322 4.58153109052681
187 1 1.1453827726317025 9.16306218105362 5.726913863158512
188 1 0.0 10.308444953685322 5.726913863158512
189 1 0.0 9.16306218105362 6.8722966357902155
190 1 1.1453827726317025 10.308444953685322 6.8722966357902155
191 1 1.1453827726317025 9.16306218105362 8.017679408421918
192 1 0.0 10.308444953685322 8.017679408421918
193 1 0.0 9.16306218105362 9.16306218105362
194 1 1.1453827726317025 10.308444953685322 9.16306218105362
195 1 1.1453827726317025 9.16306218105362 10.308444953685322
196 1 0.0 10.308444953685322 10.308444953685322
197 1 0.0 9.16306218105362 11.453827726317025
198 1 1.1453827726317025 10.308444953685322 11.453827726317025
199 1 1.1453827726317025 9.16306218105362 12.599210498948727
200 1 0.0 10.308444953685322 12.599210498948727
201 1 0.0 9.16306218105362 13.744593271580431
202 1 1.1453827726317025 10.308444953685322 13.744593271580431
203 1 1.1453827726317025 9.16306218105362 14.889976044212133
204 1 0.0 10.308444953685322 14.889976044212133
205 1 0.0 9.16306218105362 16.035358816843836
206 1 1.1453827726317025 10.308444953685322 16.035358816843836
207 1 1.1453827726317025 9.16306218105362 17.180741589475538
208 1 0.0 10.308444953685322 17.180741589475538
209 1 0.0 9.16306218105362 18.32612436210724
210 1 1.1453827726317025 10.308444953685322 18.32612436210724
211 1 1.1453827726317025 9.16306218105362 19.471507134738943
212 1 0.0 10.308444953685322 19.471507134738943
213 1 0.0 9.16306218105362 20.616889907370645
214 1 1.1453827726317025 10.308444953685322 20.616889907370645
215 1 1.1453827726317025 9.16306218105362 21.762272680002347
216 1 0.0 10.308444953685322 21.762272680002347
217 1 0.0 9.16306218105362 22.90765545263405
218 1 1.1453827726317025 10.308444953685322 22.90765545263405
219 1 1.1453827726317025 9.16306218105362 24.05303822526575
220 1 0.0 10.308444953685322 24.05303822526575
221 1 0.0 11.453827726317025 0.0
222 1 1.1453827726317025 12.599210498948727 0.0
223 1 1.1453827726317025 11.453827726317025 1.1453827726317025
224 1 0.0 12.599210498948727 1.1453827726317025
225 1 0.0 11.453827726317025 2.290765545263405
226 1 1.1453827726317025 12.599210498948727 2.290765545263405
227 1 1.1453827726317025 11.453827726317025 3.4361483178951078
228 1 0.0 12.599210498948727 3.4361483178951078
229 1 0.0 11.453827726317025 4.58153109052681
230 1 1.1453827726317025 12.599210498948727 4.58153109052681
231 1 1.1453827726317025 11.453827726317025 5.726913863158512
232 1 0.0 12.599210498948727 5.726913863158512
233 1 0.0 11.453827726317025 6.8722966357902155
234 1 1.1453827726317025 12.599210498948727 6.8722966357902155
235 1 1.1453827726317025 11.453827726317025 8.017679408421918
236 1 0.0 12.599210498948727 8.017679408421918
237 1 0.0 11.453827726317025 9.16306218105362
238 1 1.1453827726317025 12.599210498948727 9.16306218105362
239 1 1.1453827726317025 11.453827726317025 10.308444953685322
240 1 0.0 12.599210498948727 10.308444953685322
241 1 0.0 11.453827726317025 11.453827726317025
242 1 1.1453827726317025 12.599210498948727 11.453827726317025
243 1 1.1453827726317025 11.453827726317025 12.599210498948727
244 1 0.0 12.599210498948727 12.599210498948727
245 1 0.0 11.453827726317025 13.744593271580431
246 1 1.1453827726317025 12.599210498948727 13.744593271580431
247 1 1.1453827726317025 11.453827726317025 14.889976044212133
248 1 0.0 12.599210498948727 14.889976044212133
249 1 0.0 11.453827726317025 16.035358816843836
250 1 1.1453827726317025 12.599210498948727 16.035358816843836
251 1 1.1453827726317025 11.453827726317025 17.180741589475538
252 1 0.0 12.599210498948727 17.180741589475538
253 1 0.0 11.453827726317025 18.32612436210724
254 1 1.1453827726317025 12.599210498948727 18.32612436210724
255 1 1.1453827726317025 11.453827726317025 19.471507134738943
256 1 0.0 12.599210498948727 19.471507134738943
257 1 0.0 11.453827726317025 20.616889907370645
258 1 1.1453827726317025 12.599210498948727 20.616889907370645
259 1 1.1453827726317025 11.453827726317025 21.762272680002347
260 1 0.0 12.599210498948727 21.762272680002347
261 1 0.0 11.453827726317025 22.90765545263405
262 1 1.1453827726317025 12.599210498948727 22.90765545263405
263 1 1.1453827726317025 11.453827726317025 24.05303822526575
264 1 0.0 12.599210498948727 24.05303822526575
265 1 0.0 13.744593271580431 0.0
266 1 1.1453827726317025 14.889976044212133 0.0
267 1 1.1453827726317025 13.744593271580431 1.1453827726317025
268 1 0.0 14.889976044212133 1.1453827726317025
269 1 0.0 13.744593271580431 2.290765545263405
270 1 1.1453827726317025 14.889976044212133 2.290765545263405
271 1 1.1453827726317025 13.744593271580431 3.4361483178951078
272 1 0.0 14.889976044212133 3.4361483178951078
273 1 0.0 13.744593271580431 4.58153109052681
274 1 1.1453827726317025 14.889976044212133 4.58153109052681
275 1 1.1453827726317025 13.744593271580431 5.726913863158512
276 1 0.0 14.889976044212133 5.726913863158512
277 1 0.0 13.744593271580431 6.8722966357902155
278 1 1.1453827726317025 14.889976044212133 6.8722966357902155
279 1 1.1453827726317025 13.744593271580431 8.017679408421918
280 1 0.0 14.889976044212133 8.017679408421918
281 1 0.0 13.744593271580431 9.16306218105362
282 1 1.1453827726317025 14.889976044212133 9.16306218105362
283 1 1.1453827726317025 13.744593271580431 10.308444953685322
284 1 0.0 14.889976044212133 10.308444953685322
285 1 0.0 13.744593271580431 11.453827726317025
286 1 1.1453827726317025 14.889976044212133 11.453827726317025
287 1 1.1453827726317025 13.744593271580431 12.599210498948727
288 1 0.0 14.889976044212133 12.599210498948727
289 1 0.0 13.744593271580431 13.744593271580431
290 1 1.1453827726317025 14.889976044212133 13.744593271580431
291 1 1.1453827726317025 13.744593271580431 14.889976044212133
292 1 0.0 14.889976044212133 14.889976044212133
293 1 0.0 13.744593271580431 16.035358816843836
294 1 1.1453827726317025 14.889976044212133 16.035358816843836
295 1 1.1453827726317025 13.744593271580431 17.180741589475538
296 1 0.0 14.889976044212133 17.180741589475538
297 1 0.0 13.744593271580431 18.32612436210724
298 1 1.1453827726317025 14.889976044212133 18.32612436210724
299 1 1.1453827726317025 13.744593271580431 19.471507134738943
300 1 0.0 14.889976044212133 19.471507134738943
301 1 0.0 13.744593271580431 20.616889907370645
302 1 1.1453827726317025 14.889976044212133 20.616889907370645
303 1 1.1453827726317025 13.744593271580431 21.762272680002347
304 1 0.0 14.889976044212133 21.762272680002347
305 1 0.0 13.744593271580431 22.90765545263405
306 1 1.1453827726317025 14.889976044212133 22.90765545263405
307 1 1.1453827726317025 13.744593271580431 24.05303822526575
308 1 0.0 14.889976044212133 24.05303822526575
309 1 0.0 16.035358816843836 0.0
310 1 1.1453827726317025 17.180741589475538 0.0
311 1 1.1453827726317025 16.035358816843836 1.1453827726317025
312 1 0.0 17.180741589475538 1.1453827726317025
313 1 0.0 16.035358816843836 2.290765545263405
314 1 1.1453827726317025 17.180741589475538 2.290765545263405
315 1 1.1453827726317025 16.035358816843836 3.4361483178951078
316 1 0.0 17.180741589475538 3.4361483178951078
317 1 0.0 16.035358816843836 4.58153109052681
318 1 1.1453827726317025 17.180741589475538 4.58153109052681
319 1 1.1453827726317025 16.035358816843836 5.726913863158512
320 1 0.0 17.180741589475538 5.726913863158512
321 1 0.0 16.035358816843836 6.8722966357902155
322 1 1.1453827726317025 17.180741589475538 6.8722966357902155
323 1 1.1453827726317025 16.035358816843836 8.017679408421918
324 1 0.0 17.180741589475538 8.017679408421918
325 1 0.0 16.035358816843836 9.16306218105362
326 1 1.1453827726317025 17.180741589475538 9.16306218105362
327 1 1.1453827726317025 16.035358816843836 10.308444953685322
328 1 0.0 17.180741589475538 10.308444953685322
329 1 0.0 16.035358816843836 11.453827726317025
330 1 1.1453827726317025 17.180741589475538 11.453827726317025
331 1 1.1453827726317025 16.035358816843836 12.599210498948727
332 1 0.0 17.180741589475538 12.599210498948727
333 1 0.0 16.035358816843836 13.744593271580431
334 1 1.1453827726317025 17.180741589475538 13.744593271580431
335 1 1.1453827726317025 16.035358816843836 14.889976044212133
336 1 0.0 17.180741589475538 14.889976044212133
337 1 0.0 16.035358816843836 16.035358816843836
338 1 1.1453827726317025 17.180741589475538 16.035358816843836
339 1 1.1453827726317025 16.035358816843836 17.180741589475538
340 1 0.0 17.180741589475538 17.180741589475538
341 1 0.0 16.035358816843836 18.32612436210724
342 1 1.1453827726317025 17.180741589475538 18.32612436210724
343 1 1.1453827726317025 16.035358816843836 19.471507134738943
344 1 0.0 17.180741589475538 19.471507134738943
345 1 0.0 16.035358816843836 20.616889907370645
346 1 1.1453827726317025 17.180741589475538 20.616889907370645
347 1 1.1453827726317025 16.035358816843836 21.762272680002347
348 1 0.0 17.180741589475538 21.762272680002347
349 1 0.0 16.035358816843836 22.90765545263405
350 1 1.1453827726317025 17.180741589475538 22.90765545263405
351 1 1.1453827726317025 16.035358816843836 24.05303822526575
352 1 0.0 17.180741589475538 24.05303822526575
353 1 0.0 18.32612436210724 0.0
354 1 1.1453827726317025 19.471507134738943 0.0
355 1 1.1453827726317025 18.32612436210724 1.1453827726317025
356 1 0.0 19.471507134738943 1.1453827726317025
357 1 0.0 18.32612436210724 2.290765545263405
358 1 1.1453827726317025 19.471507134738943 2.290765545263405
359 1 1.1453827726317025 18.32612436210724 3.4361483178951078
360 1 0.0 19.471507134738943 3.4361483178951078
361 1 0.0 18.32612436210724 4.58153109052681
362 1 1.1453827726317025 19.471507134738943 4.58153109052681
363 1 1.1453827726317025 18.32612436210724 5.726913863158512
364 1 0.0 19.471507134738943 5.726913863158512
365 1 0.0 18.32612436210724 6.8722966357902155
366 1 1.1453827726317025 19.471507134738943 6.8722966357902155
367 1 1.1453827726317025 18.32612436210724 8.017679408421918
368 1 0.0 19.471507134738943 8.017679408421918
369 1 0.0 18.32612436210724 9.16306218105362
370 1 1.1453827726317025 19.471507134738943 9.16306218105362
371 1 1.1453827726317025 18.32612436210724 10.308444953685322
372 1 0.0 19.471507134738943 10.308444953685322
373 1 0.0 18.32612436210724 11.453827726317025
374 1 1.1453827726317025 19.471507134738943 11.453827726317025
375 1 1.1453827726317025 18.32612436210724 12.599210498948727
376 1 0.0 19.471507134738943 12.599210498948727
377 1 0.0 18.32612436210724 13.744593271580431
378 1 1.1453827726317025 19.471507134738943 13.744593271580431
379 1 1.1453827726317025 18.32612436210724 14.889976044212133
380 1 0.0 19.471507134738943 14.889976044212133
381 1 0.0 18.32612436210724 16.035358816843836
382 1 1.1453827726317025 19.471507134738943 16.035358816843836
383 1 1.1453827726317025 18.32612436210724 17.180741589475538
384 1 0.0 19.471507134738943 17.180741589475538
385 1 0.0 18.32612436210724 18.32612436210724
386 1 1.1453827726317025 19.471507134738943 18.32612436210724
387 1 1.1453827726317025 18.32612436210724 19.471507134738943
388 1 0.0 19.471507134738943 19.471507134738943
389 1 0.0 18.32612436210724 20.616889907370645
390 1 1.1453827726317025 19.471507134738943 20.616889907370645
391 1 1.1453827726317025 18.32612436210724 21.762272680002347
392 1 0.0 19.471507134738943 21.762272680002347
393 1 0.0 18.32612436210724 22.90765545263405
394 1 1.1453827726317025 19.471507134738943 22.90765545263405
395 1 1.1453827726317025 18.32612436210724 24.05303822526575
396 1 0.0 19.471507134738943 24.05303822526575
397 1 0.0 20.616889907370645 0.0
398 1 1.1453827726317025 21.762272680002347 0.0
399 1 1.1453827726317025 20.616889907370645 1.1453827726317025
400 1 0.0 21.762272680002347 1.1453827726317025
401 1 0.0 20.616889907370645 2.290765545263405
402 1 1.1453827726317025 21.762272680002347 2.290765545263405
403 1 1.1453827726317025 20.616889907370645 3.4361483178951078
404 1 0.0 21.762272680002347 3.4361483178951078
405 1 0.0 20.616889907370645 4.58153109052681
406 1 1.1453827726317025 21.762272680002347 4.58153109052681
407 1 1.1453827726317025 20.616889907370645 5.726913863158512
408 1 0.0 21.762272680002347 5.726913863158512
409 1 0.0 20.616889907370645 6.8722966357902155
410 1 1.1453827726317025 21.762272680002347 6.8722966357902155
411 1 1.1453827726317025 20.616889907370645 8.017679408421918
412 1 0.0 21.762272680002347 8.017679408421918
413 1 0.0 20.616889907370645 9.16306218105362
414 1 1.1453827726317025 21.762272680002347 9.16306218105362
415 1 1.1453827726317025 20.616889907370645 10.308444953685322
416 1 0.0 21.762272680002347 10.308444953685322
417 1 0.0 20.616889907370645 11.453827726317025
418 1 1.1453827726317025 21.762272680002347 11.453827726317025
419 1 1.1453827726317025 20.616889907370645 12.599210498948727
420 1 0.0 21.762272680002347 12.599210498948727
421 1 0.0 20.616889907370645 13.744593271580431
422 1 1.1453827726317025 21.762272680002347 13.744593271580431
423 1 1.1453827726317025 20.616889907370645 14.889976044212133
424 1 0.0 21.762272680002347 14.889976044212133
425 1 0.0 20.616889907370645 16.035358816843836
426 1 1.1453827726317025 21.762272680002347 16.035358816843836
427 1 1.1453827726317025 20.616889907370645 17.180741589475538
428 1 0.0 21.762272680002347 17.180741589475538
429 1 0.0 20.616889907370645 18.32612436210724
430 1 1.1453827726317025 21.762272680002347 18.32612436210724
431 1 1.1453827726317025 20.616889907370645 19.471507134738943
432 1 0.0 21.762272680002347 19.471507134738943
433 1 0.0 20.616889907370645 20.616889907370645
434 1 1.1453827726317025 21.762272680002347 20.616889907370645
435 1 1.1453827726317025 20.616889907370645 21.762272680002347
436 1 0.0 21.762272680002347 21.762272680002347
437 1 0.0 20.616889907370645 22.90765545263405
438 1 1.1453827726317025 21.762272680002347 22.90765545263405
439 1 1.1453827726317025 20.616889907370645 24.05303822526575
440 1 0.0 21.762272680002347 24.05303822526575
441 1 0.0 22.90765545263405 0.0
442 1 1.1453827726317025 24.05303822526575 0.0
443 1 1.1453827726317025 22.90765545263405 1.1453827726317025
444 1 0.0 24.05303822526575 1.1453827726317025
445 1 0.0 22.90765545263405 2.290765545263405
446 1 1.1453827726317025 24.05303822526575 2.290765545263405
447 1 1.1453827726317025 22.90765545263405 3.4361483178951078
448 1 0.0 24.05303822526575 3.4361483178951078
449 1 0.0 22.90765545263405 4.58153109052681
450 1 1.1453827726317025 24.05303822526575 4.58153109052681
451 1 1.1453827726317025 22.90765545263405 5.726913863158512
452 1 0.0 24.05303822526575 5.726913863158512
453 1 0.0 22.90765545263405 6.8722966357902155
454 1 1.1453827726317025 24.05303822526575 6.8722966357902155
455 1 1.1453827726317025 22.90765545263405 8.017679408421918
456 1 0.0 24.05303822526575 8.017679408421918
457 1 0.0 22.90765545263405 9.16306218105362
458 1 1.1453827726317025 24.05303822526575 9.16306218105362
459 1 1.1453827726317025 22.90765545263405 10.308444953685322
460 1 0.0 24.05303822526575 10.308444953685322
461 1 0.0 22.90765545263405 11.453827726317025
462 1 1.1453827726317025 24.05303822526575 11.453827726317025
463 1 1.1453827726317025 22.90765545263405 12.599210498948727
464 1 0.0 24.05303822526575 12.599210498948727
465 1 0.0 22.90765545263405 13.744593271580431
466 1 1.1453827726317025 24.05303822526575 13.744593271580431
467 1 1.1453827726317025 22.90765545263405 14.889976044212133
468 1 0.0 24.05303822526575 14.889976044212133
469 1 0.0 22.90765545263405 16.035358816843836
470 1 1.1453827726317025 24.05303822526575 16.035358816843836
471 1 1.1453827726317025 22.90765545263405 17.180741589475538
472 1 0.0 24.05303822526575 17.180741589475538
473 1 0.0 22.90765545263405 18.32612436210724
474 1 1.1453827726317025 24.05303822526575 18.32612436210724
475 1 1.1453827726317025 22.90765545263405 19.471507134738943
476 1 0.0 24.05303822526575 19.471507134738943
477 1 0.0 22.90765545263405 20.616889907370645
478 1 1.1453827726317025 24.05303822526575 20.616889907370645
479 1 1.1453827726317025 22.90765545263405 21.762272680002347
480 1 0.0 24.05303822526575 21.762272680002347
481 1 0.0 22.90765545263405 22.90765545263405
482 1 1.1453827726317025 24.05303822526575 22.90765545263405
483 1 1.1453827726317025 22.90765545263405 24.05303822526575
484 1 0.0 24.05303822526575 24.05303822526575
485 1 2.290765545263405 0.0 0.0
486 1 3.4361483178951078 1.1453827726317025 0.0
487 1 3.4361483178951078 0.0 1.1453827726317025
488 1 2.290765545263405 1.1453827726317025 1.1453827726317025
489 1 2.290765545263405 0.0 2.290765545263405
490 1 3.4361483178951078 1.1453827726317025 2.290765545263405
491 1 3.4361483178951078 0.0 3.4361483178951078
492 1 2.290765545263405 1.1453827726317025 3.4361483178951078
493 1 2.290765545263405 0.0 4.58153109052681
494 1 3.4361483178951078 1.1453827726317025 4.58153109052681
495 1 3.4361483178951078 0.0 5.726913863158512
496 1 2.290765545263405 1.1453827726317025 5.726913863158512
497 1 2.290765545263405 0.0 6.8722966357902155
498 1 3.4361483178951078 1.1453827726317025 6.8722966357902155
499 1 3.4361483178951078 0.0 8.017679408421918
500 1 2.290765545263405 1.1453827726317025 8.017679408421918
501 1 2.290765545263405 0.0 9.16306218105362
502 1 3.4361483178951078 1.1453827726317025 9.16306218105362
503 1 3.4361483178951078 0.0 10.308444953685322
504 1 2.290765545263405 1.1453827726317025 10.308444953685322
505 1 2.290765545263405 0.0 11.453827726317025
506 1 3.4361483178951078 1.1453827726317025 11.453827726317025
507 1 3.4361483178951078 0.0 12.599210498948727
508 1 2.290765545263405 1.1453827726317025 12.599210498948727
509 1 2.290765545263405 0.0 13.744593271580431
510 1 3.4361483178951078 1.1453827726317025 13.744593271580431
511 1 3.4361483178951078 0.0 14.889976044212133
512 1 2.290765545263405 1.1453827726317025 14.889976044212133
513 1 2.290765545263405 0.0 16.035358816843836
514 1 3.4361483178951078 1.1453827726317025 16.035358816843836
515 1 3.4361483178951078 0.0 17.180741589475538
516 1 2.290765545263405 1.1453827726317025 17.180741589475538
517 1 2.290765545263405 0.0 18.32612436210724
518 1 3.4361483178951078 1.1453827726317025 18.32612436210724
519 1 3.4361483178951078 0.0 19.471507134738943
520 1 2.290765545263405 1.1453827726317025 19.471507134738943
521 1 2.290765545263405 0.0 20.616889907370645
522 1 3.4361483178951078 1.1453827726317025 20.616889907370645
523 1 3.4361483178951078 0.0 21.762272680002347
524 1 2.290765545263405 1.1453827726317025 21.762272680002347
525 1 2.290765545263405 0.0 22.90765545263405
526 1 3.4361483178951078 1.1453827726317025 22.90765545263405
527 1 3.4361483178951078 0.0 24.05303822526575
528 1 2.290765545263405 1.1453827726317025 24.05303822526575
529 1 2.290765545263405 2.290765545263405 0.0
530 1 3.4361483178951078 3.4361483178951078 0.0
531 1 3.4361483178951078 2.290765545263405 1.1453827726317025
532 1 2.290765545263405 3.4361483178951078 1.1453827726317025
533 1 2.290765545263405 2.290765545263405 2.290765545263405
534 1 3.4361483178951078 3.4361483178951078 2.290765545263405
535 1 3.4361483178951078 2.290765545263405 3.4361483178951078
536 1 2.290765545263405 3.4361483178951078 3.4361483178951078
537 1 2.290765545263405 2.290765545263405 4.58153109052681
538 1 3.4361483178951078 3.4361483178951078 4.58153109052681
539 1 3.4361483178951078 2.290765545263405 5.726913863158512
540 1 2.290765545263405 3.4361483178951078 5.726913863158512
541 1 2.290765545263405 2.290765545263405 6.8722966357902155
542 1 3.4361483178951078 3.4361483178951078 6.8722966357902155
543 1 3.4361483178951078 2.290765545263405 8.017679408421918
544 1 2.290765545263405 3.4361483178951078 8.017679408421918
545 1 2.290765545263405 2.290765545263405 9.16306218105362
546 1 3.4361483178951078 3.4361483178951078 9.16306218105362
547 1 3.4361483178951078 2.290765545263405 10.308444953685322
548 1 2.290765545263405 3.4361483178951078 10.308444953685322
549 1 2.290765545263405 2.290765545263405 11.453827726317025
550 1 3.4361483178951078 3.4361483178951078 11.453827726317025
551 1 3.4361483178951078 2.290765545263405 12.599210498948727
552 1 2.290765545263405 3.4361483178951078 12.599210498948727
553 1 2.290765545263405 2.290765545263405 13.744593271580431
554 1 3.4361483178951078 3.4361483178951078 13.744593271580431
555 1 3.4361483178951078 2.290765545263405 14.889976044212133
556 1 2.290765545263405 3.4361483178951078 14.889976044212133
557 1 2.290765545263405 2.290765545263405 16.035358816843836
558 1 3.4361483178951078 3.4361483178951078 16.035358816843836