Position Data

10648 atoms
2 atom types

0.0 40 xlo xhi
0.0 20 ylo yhi
0.0 20 zlo zhi

Atoms

1 1 0.0 0.0 0.0
2 1 0.9090909090909091 0.9090909090909091 0.0
3 1 0.9090909090909091 0.0 0.9090909090909091
4 1 0.0 0.9090909090909091 0.9090909090909091
5 1 0.0 0.0 1.8181818181818181
6 1 0.9090909090909091 0.9090909090909091 1.8181818181818181
7 1 0.9090909090909091 0.0 2.727272727272727
8 1 0.0 0.9090909090909091 2.727272727272727
9 1 0.0 0.0 3.6363636363636362
10 1 0.9090909090909091 0.9090909090909091 3.6363636363636362
11 1 0.9090909090909091 0.0 4.545454545454545
12 1 0.0 0.9090909090909091 4.545454545454545
13 1 0.0 0.0 5.454545454545454
14 1 0.9090909090909091 0.9090909090909091 5.454545454545454
15 1 0.9090909090909091 0.0 6.363636363636363
16 1 0.0 0.9090909090909091 6.363636363636363
17 1 0.0 0.0 7.2727272727272725
18 1 0.9090909090909091 0.9090909090909091 7.2727272727272725
19 1 0.9090909090909091 0.0 8.181818181818182
20 1 0.0 0.9090909090909091 8.181818181818182
21 1 0.0 0.0 9.09090909090909
22 1 0.9090909090909091 0.9090909090909091 9.09090909090909
23 1 0.9090909090909091 0.0 9.999999999999998
24 1 0.0 0.9090909090909091 9.999999999999998
25 1 0.0 0.0 10.909090909090908
26 1 0.9090909090909091 0.9090909090909091 10.909090909090908
27 1 0.9090909090909091 0.0 11.818181818181817
28 1 0.0 0.9090909090909091 11.818181818181817
29 1 0.0 0.0 12.727272727272727
30 1 0.9090909090909091 0.9090909090909091 12.727272727272727
31 1 0.9090909090909091 0.0 13.636363636363635
32 1 0.0 0.9090909090909091 13.636363636363635
33 1 0.0 0.0 14.545454545454545
34 1 0.9090909090909091 0.9090909090909091 14.545454545454545
35 1 0.9090909090909091 0.0 15.454545454545453
36 1 0.0 0.9090909090909091 15.454545454545453
37 1 0.0 0.0 16.363636363636363
38 1 0.9090909090909091 0.9090909090909091 16.363636363636363
39 1 0.9090909090909091 0.0 17.272727272727273
40 1 0.0 0.9090909090909091 17.272727272727273
41 1 0.0 0.0 18.18181818181818
42 1 0.9090909090909091 0.9090909090909091 18.18181818181818
43 1 0.9090909090909091 0.0 19.09090909090909
44 1 0.0 0.9090909090909091 19.09090909090909
45 1 0.0 1.8181818181818181 0.0
46 1 0.9090909090909091 2.727272727272727 0.0
47 1 0.9090909090909091 1.8181818181818181 0.9090909090909091
48 1 0.0 2.727272727272727 0.9090909090909091
49 1 0.0 1.8181818181818181 1.8181818181818181
50 1 0.9090909090909091 2.727272727272727 1.8181818181818181
51 1 0.9090909090909091 1.8181818181818181 2.727272727272727
52 1 0.0 2.727272727272727 2.727272727272727
53 1 0.0 1.8181818181818181 3.6363636363636362
54 1 0.9090909090909091 2.727272727272727 3.6363636363636362
55 1 0.9090909090909091 1.8181818181818181 4.545454545454545
56 1 0.0 2.727272727272727 4.545454545454545
57 1 0.0 1.8181818181818181 5.454545454545454
58 1 0.9090909090909091 2.727272727272727 5.454545454545454
59 1 0.9090909090909091 1.8181818181818181 6.363636363636363
60 1 0.0 2.727272727272727 6.363636363636363
61 1 0.0 1.8181818181818181 7.2727272727272725
62 1 0.9090909090909091 2.727272727272727 7.2727272727272725
63 1 0.9090909090909091 1.8181818181818181 8.181818181818182
64 1 0.0 2.727272727272727 8.181818181818182
65 1 0.0 1.8181818181818181 9.09090909090909
66 1 0.9090909090909091 2.727272727272727 9.09090909090909
67 1 0.9090909090909091 1.8181818181818181 9.999999999999998
68 1 0.0 2.727272727272727 9.999999999999998
69 1 0.0 1.8181818181818181 10.909090909090908
70 1 0.9090909090909091 2.727272727272727 10.909090909090908
71 1 0.9090909090909091 1.8181818181818181 11.818181818181817
72 1 0.0 2.727272727272727 11.818181818181817
73 1 0.0 1.8181818181818181 12.727272727272727
74 1 0.9090909090909091 2.727272727272727 12.727272727272727
75 1 0.9090909090909091 1.8181818181818181 13.636363636363635
76 1 0.0 2.727272727272727 13.636363636363635
77 1 0.0 1.8181818181818181 14.545454545454545
78 1 0.9090909090909091 2.727272727272727 14.545454545454545
79 1 0.9090909090909091 1.8181818181818181 15.454545454545453
80 1 0.0 2.727272727272727 15.454545454545453
81 1 0.0 1.8181818181818181 16.363636363636363
82 1 0.9090909090909091 2.727272727272727 16.363636363636363
83 1 0.9090909090909091 1.8181818181818181 17.272727272727273
84 1 0.0 2.727272727272727 17.272727272727273
85 1 0.0 1.8181818181818181 18.18181818181818
86 1 0.9090909090909091 2.727272727272727 18.18181818181818
87 1 0.9090909090909091 1.8181818181818181 19.09090909090909
88 1 0.0 2.727272727272727 19.09090909090909
89 1 0.0 3.6363636363636362 0.0
90 1 0.9090909090909091 4.545454545454545 0.0
91 1 0.9090909090909091 3.6363636363636362 0.9090909090909091
92 1 0.0 4.545454545454545 0.9090909090909091
93 1 0.0 3.6363636363636362 1.8181818181818181
94 1 0.9090909090909091 4.545454545454545 1.8181818181818181
95 1 0.9090909090909091 3.6363636363636362 2.727272727272727
96 1 0.0 4.545454545454545 2.727272727272727
97 1 0.0 3.6363636363636362 3.6363636363636362
98 1 0.9090909090909091 4.545454545454545 3.6363636363636362
99 1 0.9090909090909091 3.6363636363636362 4.545454545454545
100 1 0.0 4.545454545454545 4.545454545454545
101 1 0.0 3.6363636363636362 5.454545454545454
102 1 0.9090909090909091 4.545454545454545 5.454545454545454
103 1 0.9090909090909091 3.6363636363636362 6.363636363636363
104 1 0.0 4.545454545454545 6.363636363636363
105 1 0.0 3.6363636363636362 7.2727272727272725
106 1 0.9090909090909091 4.545454545454545 7.2727272727272725
107 1 0.9090909090909091 3.6363636363636362 8.181818181818182
108 1 0.0 4.545454545454545 8.181818181818182
109 1 0.0 3.6363636363636362 9.09090909090909
110 1 0.9090909090909091 4.545454545454545 9.09090909090909
111 1 0.9090909090909091 3.6363636363636362 9.999999999999998
112 1 0.0 4.545454545454545 9.999999999999998
113 1 0.0 3.6363636363636362 10.909090909090908
114 1 0.9090909090909091 4.545454545454545 10.909090909090908
115 1 0.9090909090909091 3.6363636363636362 11.818181818181817
116 1 0.0 4.545454545454545 11.818181818181817
117 1 0.0 3.6363636363636362 12.727272727272727
118 1 0.9090909090909091 4.545454545454545 12.727272727272727
119 1 0.9090909090909091 3.6363636363636362 13.636363636363635
120 1 0.0 4.545454545454545 13.636363636363635
121 1 0.0 3.6363636363636362 14.545454545454545
122 1 0.9090909090909091 4.545454545454545 14.545454545454545
123 1 0.9090909090909091 3.6363636363636362 15.454545454545453
124 1 0.0 4.545454545454545 15.454545454545453
125 1 0.0 3.6363636363636362 16.363636363636363
126 1 0.9090909090909091 4.545454545454545 16.363636363636363
127 1 0.9090909090909091 3.6363636363636362 17.272727272727273
128 1 0.0 4.545454545454545 17.272727272727273
129 1 0.0 3.6363636363636362 18.18181818181818
130 1 0.9090909090909091 4.545454545454545 18.18181818181818
131 1 0.9090909090909091 3.6363636363636362 19.09090909090909
132 1 0.0 4.545454545454545 19.09090909090909
133 1 0.0 5.454545454545454 0.0
134 1 0.9090909090909091 6.363636363636363 0.0
135 1 0.9090909090909091 5.454545454545454 0.9090909090909091
136 1 0.0 6.363636363636363 0.9090909090909091
137 1 0.0 5.454545454545454 1.8181818181818181
138 1 0.9090909090909091 6.363636363636363 1.8181818181818181
139 1 0.9090909090909091 5.454545454545454 2.727272727272727
140 1 0.0 6.363636363636363 2.727272727272727
141 1 0.0 5.454545454545454 3.6363636363636362
142 1 0.9090909090909091 6.363636363636363 3.6363636363636362
143 1 0.9090909090909091 5.454545454545454 4.545454545454545
144 1 0.0 6.363636363636363 4.545454545454545
145 1 0.0 5.454545454545454 5.454545454545454
146 1 0.9090909090909091 6.363636363636363 5.454545454545454
147 1 0.9090909090909091 5.454545454545454 6.363636363636363
148 1 0.0 6.363636363636363 6.363636363636363
149 1 0.0 5.454545454545454 7.2727272727272725
150 1 0.9090909090909091 6.363636363636363 7.2727272727272725
151 1 0.9090909090909091 5.454545454545454 8.181818181818182
152 1 0.0 6.363636363636363 8.181818181818182
153 1 0.0 5.454545454545454 9.09090909090909
154 1 0.9090909090909091 6.363636363636363 9.09090909090909
155 1 0.9090909090909091 5.454545454545454 9.999999999999998
156 1 0.0 6.363636363636363 9.999999999999998
157 1 0.0 5.454545454545454 10.909090909090908
158 1 0.9090909090909091 6.363636363636363 10.909090909090908
159 1 0.9090909090909091 5.454545454545454 11.818181818181817
160 1 0.0 6.363636363636363 11.818181818181817
161 1 0.0 5.454545454545454 12.727272727272727
162 1 0.9090909090909091 6.363636363636363 12.727272727272727
163 1 0.9090909090909091 5.454545454545454 13.636363636363635
164 1 0.0 6.363636363636363 13.636363636363635
165 1 0.0 5.454545454545454 14.545454545454545
166 1 0.9090909090909091 6.363636363636363 14.545454545454545
167 1 0.9090909090909091 5.454545454545454 15.454545454545453
168 1 0.0 6.363636363636363 15.454545454545453
169 1 0.0 5.454545454545454 16.363636363636363
170 1 0.9090909090909091 6.363636363636363 16.363636363636363
171 1 0.9090909090909091 5.454545454545454 17.272727272727273
172 1 0.0 6.363636363636363 17.272727272727273
173 1 0.0 5.454545454545454 18.18181818181818
174 1 0.9090909090909091 6.363636363636363 18.18181818181818
175 1 0.9090909090909091 5.454545454545454 19.09090909090909
176 1 0.0 6.363636363636363 19.09090909090909
177 1 0.0 7.2727272727272725 0.0
178 1 0.9090909090909091 8.181818181818182 0.0
179 1 0.9090909090909091 7.2727272727272725 0.9090909090909091
180 1 0.0 8.181818181818182 0.9090909090909091
181 1 0.0 7.2727272727272725 1.8181818181818181
182 1 0.9090909090909091 8.181818181818182 1.8181818181818181
183 1 0.9090909090909091 7.2727272727272725 2.727272727272727
184 1 0.0 8.181818181818182 2.727272727272727
185 1 0.0 7.2727272727272725 3.6363636363636362
186 1 0.9090909090909091 8.181818181818182 3.6363636363636362
187 1 0.9090909090909091 7.2727272727272725 4.545454545454545
188 1 0.0 8.181818181818182 4.545454545454545
189 1 0.0 7.2727272727272725 5.454545454545454
190 1 0.9090909090909091 8.181818181818182 5.454545454545454
191 1 0.9090909090909091 7.2727272727272725 6.363636363636363
192 1 0.0 8.181818181818182 6.363636363636363
193 1 0.0 7.2727272727272725 7.2727272727272725
194 1 0.9090909090909091 8.181818181818182 7.2727272727272725
195 1 0.9090909090909091 7.2727272727272725 8.181818181818182
196 1 0.0 8.181818181818182 8.181818181818182
197 1 0.0 7.2727272727272725 9.09090909090909
198 1 0.9090909090909091 8.181818181818182 9.09090909090909
199 1 0.9090909090909091 7.2727272727272725 9.999999999999998
200 1 0.0 8.181818181818182 9.999999999999998
201 1 0.0 7.2727272727272725 10.909090909090908
202 1 0.9090909090909091 8.181818181818182 10.909090909090908
203 1 0.9090909090909091 7.2727272727272725 11.818181818181817
204 1 0.0 8.181818181818182 11.818181818181817
205 1 0.0 7.2727272727272725 12.727272727272727
206 1 0.9090909090909091 8.181818181818182 12.727272727272727
207 1 0.9090909090909091 7.2727272727272725 13.636363636363635
208 1 0.0 8.181818181818182 13.636363636363635
209 1 0.0 7.2727272727272725 14.545454545454545
210 1 0.9090909090909091 8.181818181818182 14.545454545454545
211 1 0.9090909090909091 7.2727272727272725 15.454545454545453
212 1 0.0 8.181818181818182 15.454545454545453
213 1 0.0 7.2727272727272725 16.363636363636363
214 1 0.9090909090909091 8.181818181818182 16.363636363636363
215 1 0.9090909090909091 7.2727272727272725 17.272727272727273
216 1 0.0 8.181818181818182 17.272727272727273
217 1 0.0 7.2727272727272725 18.18181818181818
218 1 0.9090909090909091 8.181818181818182 18.18181818181818
219 1 0.9090909090909091 7.2727272727272725 19.09090909090909
220 1 0.0 8.181818181818182 19.09090909090909
221 1 0.0 9.09090909090909 0.0
222 1 0.9090909090909091 9.999999999999998 0.0
223 1 0.9090909090909091 9.09090909090909 0.9090909090909091
224 1 0.0 9.999999999999998 0.9090909090909091
225 1 0.0 9.09090909090909 1.8181818181818181
226 1 0.9090909090909091 9.999999999999998 1.8181818181818181
227 1 0.9090909090909091 9.09090909090909 2.727272727272727
228 1 0.0 9.999999999999998 2.727272727272727
229 1 0.0 9.09090909090909 3.6363636363636362
230 1 0.9090909090909091 9.999999999999998 3.6363636363636362
231 1 0.9090909090909091 9.09090909090909 4.545454545454545
232 1 0.0 9.999999999999998 4.545454545454545
233 1 0.0 9.09090909090909 5.454545454545454
234 1 0.9090909090909091 9.999999999999998 5.454545454545454
235 1 0.9090909090909091 9.09090909090909 6.363636363636363
236 1 0.0 9.999999999999998 6.363636363636363
237 1 0.0 9.09090909090909 7.2727272727272725
238 1 0.9090909090909091 9.999999999999998 7.2727272727272725
239 1 0.9090909090909091 9.09090909090909 8.181818181818182
240 1 0.0 9.999999999999998 8.181818181818182
241 1 0.0 9.09090909090909 9.09090909090909
242 1 0.9090909090909091 9.999999999999998 9.09090909090909
243 1 0.9090909090909091 9.09090909090909 9.999999999999998
244 1 0.0 9.999999999999998 9.999999999999998
245 1 0.0 9.09090909090909 10.909090909090908
246 1 0.9090909090909091 9.999999999999998 10.909090909090908
247 1 0.9090909090909091 9.09090909090909 11.818181818181817
248 1 0.0 9.999999999999998 11.818181818181817
249 1 0.0 9.09090909090909 12.727272727272727
250 1 0.9090909090909091 9.999999999999998 12.727272727272727
251 1 0.9090909090909091 9.09090909090909 13.636363636363635
252 1 0.0 9.999999999999998 13.636363636363635
253 1 0.0 9.09090909090909 14.545454545454545
254 1 0.9090909090909091 9.999999999999998 14.545454545454545
255 1 0.9090909090909091 9.09090909090909 15.454545454545453
256 1 0.0 9.999999999999998 15.454545454545453
257 1 0.0 9.09090909090909 16.363636363636363
258 1 0.9090909090909091 9.999999999999998 16.363636363636363
259 1 0.9090909090909091 9.09090909090909 17.272727272727273
260 1 0.0 9.999999999999998 17.272727272727273
261 1 0.0 9.09090909090909 18.18181818181818
262 1 0.9090909090909091 9.999999999999998 18.18181818181818
263 1 0.9090909090909091 9.09090909090909 19.09090909090909
264 1 0.0 9.999999999999998 19.09090909090909
265 1 0.0 10.909090909090908 0.0
266 1 0.9090909090909091 11.818181818181817 0.0
267 1 0.9090909090909091 10.909090909090908 0.9090909090909091
268 1 0.0 11.818181818181817 0.9090909090909091
269 1 0.0 10.909090909090908 1.8181818181818181
270 1 0.9090909090909091 11.818181818181817 1.8181818181818181
271 1 0.9090909090909091 10.909090909090908 2.727272727272727
272 1 0.0 11.818181818181817 2.727272727272727
273 1 0.0 10.909090909090908 3.6363636363636362
274 1 0.9090909090909091 11.818181818181817 3.6363636363636362
275 1 0.9090909090909091 10.909090909090908 4.545454545454545
276 1 0.0 11.818181818181817 4.545454545454545
277 1 0.0 10.909090909090908 5.454545454545454
278 1 0.9090909090909091 11.818181818181817 5.454545454545454
279 1 0.9090909090909091 10.909090909090908 6.363636363636363
280 1 0.0 11.818181818181817 6.363636363636363
281 1 0.0 10.909090909090908 7.2727272727272725
282 1 0.9090909090909091 11.818181818181817 7.2727272727272725
283 1 0.9090909090909091 10.909090909090908 8.181818181818182
284 1 0.0 11.818181818181817 8.181818181818182
285 1 0.0 10.909090909090908 9.09090909090909
286 1 0.9090909090909091 11.818181818181817 9.09090909090909
287 1 0.9090909090909091 10.909090909090908 9.999999999999998
288 1 0.0 11.818181818181817 9.999999999999998
289 1 0.0 10.909090909090908 10.909090909090908
290 1 0.9090909090909091 11.818181818181817 10.909090909090908
291 1 0.9090909090909091 10.909090909090908 11.818181818181817
292 1 0.0 11.818181818181817 11.818181818181817
293 1 0.0 10.909090909090908 12.727272727272727
294 1 0.9090909090909091 11.818181818181817 12.727272727272727
295 1 0.9090909090909091 10.909090909090908 13.636363636363635
296 1 0.0 11.818181818181817 13.636363636363635
297 1 0.0 10.909090909090908 14.545454545454545
298 1 0.9090909090909091 11.818181818181817 14.545454545454545
299 1 0.9090909090909091 10.909090909090908 15.454545454545453
300 1 0.0 11.818181818181817 15.454545454545453
301 1 0.0 10.909090909090908 16.363636363636363
302 1 0.9090909090909091 11.818181818181817 16.363636363636363
303 1 0.9090909090909091 10.909090909090908 17.272727272727273
304 1 0.0 11.818181818181817 17.272727272727273
305 1 0.0 10.909090909090908 18.18181818181818
306 1 0.9090909090909091 11.818181818181817 18.18181818181818
307 1 0.9090909090909091 10.909090909090908 19.09090909090909
308 1 0.0 11.818181818181817 19.09090909090909
309 1 0.0 12.727272727272727 0.0
310 1 0.9090909090909091 13.636363636363635 0.0
311 1 0.9090909090909091 12.727272727272727 0.9090909090909091
312 1 0.0 13.636363636363635 0.9090909090909091
313 1 0.0 12.727272727272727 1.8181818181818181
314 1 0.9090909090909091 13.636363636363635 1.8181818181818181
315 1 0.9090909090909091 12.727272727272727 2.727272727272727
316 1 0.0 13.636363636363635 2.727272727272727
317 1 0.0 12.727272727272727 3.6363636363636362
318 1 0.9090909090909091 13.636363636363635 3.6363636363636362
319 1 0.9090909090909091 12.727272727272727 4.545454545454545
320 1 0.0 13.636363636363635 4.545454545454545
321 1 0.0 12.727272727272727 5.454545454545454
322 1 0.9090909090909091 13.636363636363635 5.454545454545454
323 1 0.9090909090909091 12.727272727272727 6.363636363636363
324 1 0.0 13.636363636363635 6.363636363636363
325 1 0.0 12.727272727272727 7.2727272727272725
326 1 0.9090909090909091 13.636363636363635 7.2727272727272725
327 1 0.9090909090909091 12.727272727272727 8.181818181818182
328 1 0.0 13.636363636363635 8.181818181818182
329 1 0.0 12.727272727272727 9.09090909090909
330 1 0.9090909090909091 13.636363636363635 9.09090909090909
331 1 0.9090909090909091 12.727272727272727 9.999999999999998
332 1 0.0 13.636363636363635 9.999999999999998
333 1 0.0 12.727272727272727 10.909090909090908
334 1 0.9090909090909091 13.636363636363635 10.909090909090908
335 1 0.9090909090909091 12.727272727272727 11.818181818181817
336 1 0.0 13.636363636363635 11.818181818181817
337 1 0.0 12.727272727272727 12.727272727272727
338 1 0.9090909090909091 13.636363636363635 12.727272727272727
339 1 0.9090909090909091 12.727272727272727 13.636363636363635
340 1 0.0 13.636363636363635 13.636363636363635
341 1 0.0 12.727272727272727 14.545454545454545
342 1 0.9090909090909091 13.636363636363635 14.545454545454545
343 1 0.9090909090909091 12.727272727272727 15.454545454545453
344 1 0.0 13.636363636363635 15.454545454545453
345 1 0.0 12.727272727272727 16.363636363636363
346 1 0.9090909090909091 13.636363636363635 16.363636363636363
347 1 0.9090909090909091 12.727272727272727 17.272727272727273
348 1 0.0 13.636363636363635 17.272727272727273
349 1 0.0 12.727272727272727 18.18181818181818
350 1 0.9090909090909091 13.636363636363635 18.18181818181818
351 1 0.9090909090909091 12.727272727272727 19.09090909090909
352 1 0.0 13.636363636363635 19.09090909090909
353 1 0.0 14.545454545454545 0.0
354 1 0.9090909090909091 15.454545454545453 0.0
355 1 0.9090909090909091 14.545454545454545 0.9090909090909091
356 1 0.0 15.454545454545453 0.9090909090909091
357 1 0.0 14.545454545454545 1.8181818181818181
358 1 0.9090909090909091 15.454545454545453 1.8181818181818181
359 1 0.9090909090909091 14.545454545454545 2.727272727272727
360 1 0.0 15.454545454545453 2.727272727272727
361 1 0.0 14.545454545454545 3.6363636363636362
362 1 0.9090909090909091 15.454545454545453 3.6363636363636362
363 1 0.9090909090909091 14.545454545454545 4.545454545454545
364 1 0.0 15.454545454545453 4.545454545454545
365 1 0.0 14.545454545454545 5.454545454545454
366 1 0.9090909090909091 15.454545454545453 5.454545454545454
367 1 0.9090909090909091 14.545454545454545 6.363636363636363
368 1 0.0 15.454545454545453 6.363636363636363
369 1 0.0 14.545454545454545 7.2727272727272725
370 1 0.9090909090909091 15.454545454545453 7.2727272727272725
371 1 0.9090909090909091 14.545454545454545 8.181818181818182
372 1 0.0 15.454545454545453 8.181818181818182
373 1 0.0 14.545454545454545 9.09090909090909
374 1 0.9090909090909091 15.454545454545453 9.09090909090909
375 1 0.9090909090909091 14.545454545454545 9.999999999999998
376 1 0.0 15.454545454545453 9.999999999999998
377 1 0.0 14.545454545454545 10.909090909090908
378 1 0.9090909090909091 15.454545454545453 10.909090909090908
379 1 0.9090909090909091 14.545454545454545 11.818181818181817
380 1 0.0 15.454545454545453 11.818181818181817
381 1 0.0 14.545454545454545 12.727272727272727
382 1 0.9090909090909091 15.454545454545453 12.727272727272727
383 1 0.9090909090909091 14.545454545454545 13.636363636363635
384 1 0.0 15.454545454545453 13.636363636363635
385 1 0.0 14.545454545454545 14.545454545454545
386 1 0.9090909090909091 15.454545454545453 14.545454545454545
387 1 0.9090909090909091 14.545454545454545 15.454545454545453
388 1 0.0 15.454545454545453 15.454545454545453
389 1 0.0 14.545454545454545 16.363636363636363
390 1 0.9090909090909091 15.454545454545453 16.363636363636363
391 1 0.9090909090909091 14.545454545454545 17.272727272727273
392 1 0.0 15.454545454545453 17.272727272727273
393 1 0.0 14.545454545454545 18.18181818181818
394 1 0.9090909090909091 15.454545454545453 18.18181818181818
395 1 0.9090909090909091 14.545454545454545 19.09090909090909
396 1 0.0 15.454545454545453 19.09090909090909
397 1 0.0 16.363636363636363 0.0
398 1 0.9090909090909091 17.272727272727273 0.0
399 1 0.9090909090909091 16.363636363636363 0.9090909090909091
400 1 0.0 17.272727272727273 0.9090909090909091
401 1 0.0 16.363636363636363 1.8181818181818181
402 1 0.9090909090909091 17.272727272727273 1.8181818181818181
403 1 0.9090909090909091 16.363636363636363 2.727272727272727
404 1 0.0 17.272727272727273 2.727272727272727
405 1 0.0 16.363636363636363 3.6363636363636362
406 1 0.9090909090909091 17.272727272727273 3.6363636363636362
407 1 0.9090909090909091 16.363636363636363 4.545454545454545
408 1 0.0 17.272727272727273 4.545454545454545
409 1 0.0 16.363636363636363 5.454545454545454
410 1 0.9090909090909091 17.272727272727273 5.454545454545454
411 1 0.9090909090909091 16.363636363636363 6.363636363636363
412 1 0.0 17.272727272727273 6.363636363636363
413 1 0.0 16.363636363636363 7.2727272727272725
414 1 0.9090909090909091 17.272727272727273 7.2727272727272725
415 1 0.9090909090909091 16.363636363636363 8.181818181818182
416 1 0.0 17.272727272727273 8.181818181818182
417 1 0.0 16.363636363636363 9.09090909090909
418 1 0.9090909090909091 17.272727272727273 9.09090909090909
419 1 0.9090909090909091 16.363636363636363 9.999999999999998
420 1 0.0 17.272727272727273 9.999999999999998
421 1 0.0 16.363636363636363 10.909090909090908
422 1 0.9090909090909091 17.272727272727273 10.909090909090908
423 1 0.9090909090909091 16.363636363636363 11.818181818181817
424 1 0.0 17.272727272727273 11.818181818181817
425 1 0.0 16.363636363636363 12.727272727272727
426 1 0.9090909090909091 17.272727272727273 12.727272727272727
427 1 0.9090909090909091 16.363636363636363 13.636363636363635
428 1 0.0 17.272727272727273 13.636363636363635
429 1 0.0 16.363636363636363 14.545454545454545
430 1 0.9090909090909091 17.272727272727273 14.545454545454545
431 1 0.9090909090909091 16.363636363636363 15.454545454545453
432 1 0.0 17.272727272727273 15.454545454545453
433 1 0.0 16.363636363636363 16.363636363636363
434 1 0.9090909090909091 17.272727272727273 16.363636363636363
435 1 0.9090909090909091 16.363636363636363 17.272727272727273
436 1 0.0 17.272727272727273 17.272727272727273
437 1 0.0 16.363636363636363 18.18181818181818
438 1 0.9090909090909091 17.272727272727273 18.18181818181818
439 1 0.9090909090909091 16.363636363636363 19.09090909090909
440 1 0.0 17.272727272727273 19.09090909090909
441 1 0.0 18.18181818181818 0.0
442 1 0.9090909090909091 19.09090909090909 0.0
443 1 0.9090909090909091 18.18181818181818 0.9090909090909091
444 1 0.0 19.09090909090909 0.9090909090909091
445 1 0.0 18.18181818181818 1.8181818181818181
446 1 0.9090909090909091 19.09090909090909 1.8181818181818181
447 1 0.9090909090909091 18.18181818181818 2.727272727272727
448 1 0.0 19.09090909090909 2.727272727272727
449 1 0.0 18.18181818181818 3.6363636363636362
450 1 0.9090909090909091 19.09090909090909 3.6363636363636362
451 1 0.9090909090909091 18.18181818181818 4.545454545454545
452 1 0.0 19.09090909090909 4.545454545454545
453 1 0.0 18.18181818181818 5.454545454545454
454 1 0.9090909090909091 19.09090909090909 5.454545454545454
455 1 0.9090909090909091 18.18181818181818 6.363636363636363
456 1 0.0 19.09090909090909 6.363636363636363
457 1 0.0 18.18181818181818 7.2727272727272725
458 1 0.9090909090909091 19.09090909090909 7.2727272727272725
459 1 0.9090909090909091 18.18181818181818 8.181818181818182
460 1 0.0 19.09090909090909 8.181818181818182
461 1 0.0 18.18181818181818 9.09090909090909
462 1 0.9090909090909091 19.09090909090909 9.09090909090909
463 1 0.9090909090909091 18.18181818181818 9.999999999999998
464 1 0.0 19.09090909090909 9.999999999999998
465 1 0.0 18.18181818181818 10.909090909090908
466 1 0.9090909090909091 19.09090909090909 10.909090909090908
467 1 0.9090909090909091 18.18181818181818 11.818181818181817
468 1 0.0 19.09090909090909 11.818181818181817
469 1 0.0 18.18181818181818 12.727272727272727
470 1 0.9090909090909091 19.09090909090909 12.727272727272727
471 1 0.9090909090909091 18.18181818181818 13.636363636363635
472 1 0.0 19.09090909090909 13.636363636363635
473 1 0.0 18.18181818181818 14.545454545454545
474 1 0.9090909090909091 19.09090909090909 14.545454545454545
475 1 0.9090909090909091 18.18181818181818 15.454545454545453
476 1 0.0 19.09090909090909 15.454545454545453
477 1 0.0 18.18181818181818 16.363636363636363
478 1 0.9090909090909091 19.09090909090909 16.363636363636363
479 1 0.9090909090909091 18.18181818181818 17.272727272727273
480 1 0.0 19.09090909090909 17.272727272727273
481 1 0.0 18.18181818181818 18.18181818181818
482 1 0.9090909090909091 19.09090909090909 18.18181818181818
483 1 0.9090909090909091 18.18181818181818 19.09090909090909
484 1 0.0 19.09090909090909 19.09090909090909
485 1 1.8181818181818181 0.0 0.0
486 1 2.727272727272727 0.9090909090909091 0.0
487 1 2.727272727272727 0.0 0.9090909090909091
488 1 1.8181818181818181 0.9090909090909091 0.9090909090909091
489 1 1.8181818181818181 0.0 1.8181818181818181
490 1 2.727272727272727 0.9090909090909091 1.8181818181818181
491 1 2.727272727272727 0.0 2.727272727272727
492 1 1.8181818181818181 0.9090909090909091 2.727272727272727
493 1 1.8181818181818181 0.0 3.6363636363636362
494 1 2.727272727272727 0.9090909090909091 3.6363636363636362
495 1 2.727272727272727 0.0 4.545454545454545
496 1 1.8181818181818181 0.9090909090909091 4.545454545454545
497 1 1.8181818181818181 0.0 5.454545454545454
498 1 2.727272727272727 0.9090909090909091 5.454545454545454
499 1 2.727272727272727 0.0 6.363636363636363
500 1 1.8181818181818181 0.9090909090909091 6.363636363636363
501 1 1.8181818181818181 0.0 7.2727272727272725
502 1 2.727272727272727 0.9090909090909091 7.2727272727272725
503 1 2.727272727272727 0.0 8.181818181818182
504 1 1.8181818181818181 0.9090909090909091 8.181818181818182
505 1 1.8181818181818181 0.0 9.09090909090909
506 1 2.727272727272727 0.9090909090909091 9.09090909090909
507 1 2.727272727272727 0.0 9.999999999999998
508 1 1.8181818181818181 0.9090909090909091 9.999999999999998
509 1 1.8181818181818181 0.0 10.909090909090908
510 1 2.727272727272727 0.9090909090909091 10.909090909090908
511 1 2.727272727272727 0.0 11.818181818181817
512 1 1.8181818181818181 0.9090909090909091 11.818181818181817
513 1 1.8181818181818181 0.0 12.727272727272727
514 1 2.727272727272727 0.9090909090909091 12.727272727272727
515 1 2.727272727272727 0.0 13.636363636363635
516 1 1.8181818181818181 0.9090909090909091 13.636363636363635
517 1 1.8181818181818181 0.0 14.545454545454545
518 1 2.727272727272727 0.9090909090909091 14.545454545454545
519 1 2.727272727272727 0.0 15.454545454545453
520 1 1.8181818181818181 0.9090909090909091 15.454545454545453
521 1 1.8181818181818181 0.0 16.363636363636363
522 1 2.727272727272727 0.9090909090909091 16.363636363636363
523 1 2.727272727272727 0.0 17.272727272727273
524 1 1.8181818181818181 0.9090909090909091 17.272727272727273
525 1 1.8181818181818181 0.0 18.18181818181818
526 1 2.727272727272727 0.9090909090909091 18.18181818181818
527 1 2.727272727272727 0.0 19.09090909090909
528 1 1.8181818181818181 0.9090909090909091 19.09090909090909
529 1 1.8181818181818181 1.8181818181818181 0.0
530 1 2.727272727272727 2.727272727272727 0.0
531 1 2.727272727272727 1.8181818181818181 0.9090909090909091
532 1 1.8181818181818181 2.727272727272727 0.9090909090909091
533 1 1.8181818181818181 1.8181818181818181 1.8181818181818181
534 1 2.727272727272727 2.727272727272727 1.8181818181818181
535 1 2.727272727272727 1.8181818181818181 2.727272727272727
536 1 1.8181818181818181 2.727272727272727 2.727272727272727
537 1 1.8181818181818181 1.8181818181818181 3.6363636363636362
538 1 2.727272727272727 2.727272727272727 3.6363636363636362
539 1 2.727272727272727 1.8181818181818181 4.545454545454545
540 1 1.8181818181818181 2.727272727272727 4.545454545454545
541 1 1.8181818181818181 1.8181818181818181 5.454545454545454
542 1 2.727272727272727 2.727272727272727 5.454545454545454
543 1 2.727272727272727 1.8181818181818181 6.363636363636363
544 1 1.8181818181818181 2.727272727272727 6.363636363636363
545 1 1.8181818181818181 1.8181818181818181 7.2727272727272725
546 1 2.727272727272727 2.727272727272727 7.2727272727272725
547 1 2.727272727272727 1.8181818181818181 8.181818181818182
548 1 1.8181818181818181 2.727272727272727 8.181818181818182
549 1 1.8181818181818181 1.8181818181818181 9.09090909090909
550 1 2.727272727272727 2.727272727272727 9.09090909090909
551 1 2.727272727272727 1.8181818181818181 9.999999999999998
552 1 1.8181818181818181 2.727272727272727 9.999999999999998
553 1 1.8181818181818181 1.8181818181818181 10.909090909090908
554 1 2.727272727272727 2.727272727272727 10.909090909090908
555 1 2.727272727272727 1.8181818181818181 11.818181818181817
556 1 1.8181818181818181 2.727272727272727 11.818181818181817
557 1 1.8181818181818181 1.8181818181818181 12.727272727272727
558 1 2.727272727272727 2.727272727272727 12.727272727272727
559 1 2.727272727272727 1.8181818181818181 13.636363636363635